h 0.1 2 4 cbr 210 ------- 0 2.0 1.1 0 0
h 0.1 0 4 tcp 40 ------- 0 0.0 2.1 0 1
h 0.1 1 4 tcp 40 ------- 0 1.0 3.0 0 2
+ 0.11 2 4 cbr 210 ------- 0 2.0 1.1 0 0
- 0.11 2 4 cbr 210 ------- 0 2.0 1.1 0 0
h 0.11 2 4 cbr 210 ------- 0 2.0 1.1 1 3
+ 0.11 0 4 tcp 40 ------- 0 0.0 2.1 0 1
- 0.11 0 4 tcp 40 ------- 0 0.0 2.1 0 1
+ 0.11 1 4 tcp 40 ------- 0 1.0 3.0 0 2
- 0.11 1 4 tcp 40 ------- 0 1.0 3.0 0 2
c 0.110004 1 4 cbr 224 ------- 0 2.0 1.1 0 0
c 0.110004 0 4 cbr 224 ------- 0 2.0 1.1 0 0
c 0.110004 2 4 tcp 64 ------- 0 0.0 2.1 0 1
c 0.110019 1 4 cbr 224 ------- 0 2.0 1.1 0 0
c 0.110019 2 4 tcp 64 ------- 0 1.0 3.0 0 2
c 0.11003 2 4 tcp 64 ------- 0 1.0 3.0 0 2
c 0.11003 1 4 cbr 224 ------- 0 2.0 1.1 0 0
+ 0.12 2 4 cbr 210 ------- 0 2.0 1.1 1 3
- 0.12 2 4 cbr 210 ------- 0 2.0 1.1 1 3
h 0.12 2 4 cbr 210 ------- 0 2.0 1.1 2 4
r 0.120014 4 2 tcp 40 ------- 0 0.0 2.1 0 1
h 0.120014 2 4 ack 40 ------- 0 2.1 0.0 0 5
r 0.120053 4 1 cbr 210 ------- 0 2.0 1.1 0 0
r 0.120071 4 3 tcp 40 ------- 0 1.0 3.0 0 2
h 0.120071 3 4 ack 40 ------- 0 3.0 1.0 0 6
+ 0.13 2 4 cbr 210 ------- 0 2.0 1.1 2 4
- 0.13 2 4 cbr 210 ------- 0 2.0 1.1 2 4
h 0.13 2 4 cbr 210 ------- 0 2.0 1.1 3 7
+ 0.130014 2 4 ack 40 ------- 0 2.1 0.0 0 5
- 0.130019 2 4 ack 40 ------- 0 2.1 0.0 0 5
r 0.130022 4 1 cbr 210 ------- 0 2.0 1.1 1 3
+ 0.130071 3 4 ack 40 ------- 0 3.0 1.0 0 6
- 0.130071 3 4 ack 40 ------- 0 3.0 1.0 0 6
+ 0.14 2 4 cbr 210 ------- 0 2.0 1.1 3 7
- 0.14 2 4 cbr 210 ------- 0 2.0 1.1 3 7
h 0.14 2 4 cbr 210 ------- 0 2.0 1.1 4 8
r 0.140022 4 1 cbr 210 ------- 0 2.0 1.1 2 4
r 0.140028 4 0 ack 40 ------- 0 2.1 0.0 0 5
h 0.140028 0 4 tcp 1040 ------- 0 0.0 2.1 1 9
h 0.140028 0 4 tcp 1040 ------- 0 0.0 2.1 2 10
r 0.14008 4 1 ack 40 ------- 0 3.0 1.0 0 6
h 0.14008 1 4 tcp 1040 ------- 0 1.0 3.0 1 11
h 0.14008 1 4 tcp 1040 ------- 0 1.0 3.0 2 12
+ 0.15 2 4 cbr 210 ------- 0 2.0 1.1 4 8
- 0.15 2 4 cbr 210 ------- 0 2.0 1.1 4 8
h 0.15 2 4 cbr 210 ------- 0 2.0 1.1 5 13
r 0.150022 4 1 cbr 210 ------- 0 2.0 1.1 3 7
+ 0.150028 0 4 tcp 1040 ------- 0 0.0 2.1 1 9
- 0.150028 0 4 tcp 1040 ------- 0 0.0 2.1 1 9
+ 0.150028 0 4 tcp 1040 ------- 0 0.0 2.1 2 10
+ 0.15008 1 4 tcp 1040 ------- 0 1.0 3.0 1 11
- 0.15008 1 4 tcp 1040 ------- 0 1.0 3.0 1 11
+ 0.15008 1 4 tcp 1040 ------- 0 1.0 3.0 2 12
- 0.150113 0 4 tcp 1040 ------- 0 0.0 2.1 2 10
c 0.150117 1 4 tcp 1054 ------- 0 0.0 2.1 2 10
c 0.150121 0 4 tcp 1054 ------- 0 1.0 3.0 1 11
c 0.150127 1 4 tcp 1054 ------- 0 0.0 2.1 2 10
c 0.150128 0 4 tcp 1054 ------- 0 1.0 3.0 1 11
- 0.150213 1 4 tcp 1040 ------- 0 1.0 3.0 2 12
c 0.150217 0 4 tcp 1054 ------- 0 1.0 3.0 2 12
c 0.150221 1 4 tcp 1054 ------- 0 0.0 2.1 2 10
+ 0.16 2 4 cbr 210 ------- 0 2.0 1.1 5 13
- 0.16 2 4 cbr 210 ------- 0 2.0 1.1 5 13
h 0.16 2 4 cbr 210 ------- 0 2.0 1.1 6 14
r 0.160022 4 1 cbr 210 ------- 0 2.0 1.1 4 8
r 0.160116 4 2 tcp 1040 ------- 0 0.0 2.1 1 9
h 0.160116 2 4 ack 40 ------- 0 2.1 0.0 1 15
r 0.160216 4 3 tcp 1040 ------- 0 1.0 3.0 1 11
h 0.160216 3 4 ack 40 ------- 0 3.0 1.0 1 16
r 0.160307 4 2 tcp 1040 ------- 0 0.0 2.1 2 10
h 0.160307 2 4 ack 40 ------- 0 2.1 0.0 2 17
r 0.160396 4 3 tcp 1040 ------- 0 1.0 3.0 2 12
h 0.160396 3 4 ack 40 ------- 0 3.0 1.0 2 18
+ 0.17 2 4 cbr 210 ------- 0 2.0 1.1 6 14
- 0.17 2 4 cbr 210 ------- 0 2.0 1.1 6 14
h 0.17 2 4 cbr 210 ------- 0 2.0 1.1 7 19
r 0.170022 4 1 cbr 210 ------- 0 2.0 1.1 5 13
+ 0.170116 2 4 ack 40 ------- 0 2.1 0.0 1 15
- 0.170116 2 4 ack 40 ------- 0 2.1 0.0 1 15
+ 0.170216 3 4 ack 40 ------- 0 3.0 1.0 1 16
- 0.170216 3 4 ack 40 ------- 0 3.0 1.0 1 16
+ 0.170307 2 4 ack 40 ------- 0 2.1 0.0 2 17
- 0.170307 2 4 ack 40 ------- 0 2.1 0.0 2 17
+ 0.170396 3 4 ack 40 ------- 0 3.0 1.0 2 18
- 0.170396 3 4 ack 40 ------- 0 3.0 1.0 2 18
+ 0.18 2 4 cbr 210 ------- 0 2.0 1.1 7 19
- 0.18 2 4 cbr 210 ------- 0 2.0 1.1 7 19
h 0.18 2 4 cbr 210 ------- 0 2.0 1.1 8 20
r 0.180022 4 1 cbr 210 ------- 0 2.0 1.1 6 14
r 0.180125 4 0 ack 40 ------- 0 2.1 0.0 1 15
h 0.180125 0 4 tcp 1040 ------- 0 0.0 2.1 3 21
h 0.180125 0 4 tcp 1040 ------- 0 0.0 2.1 4 22
r 0.180225 4 1 ack 40 ------- 0 3.0 1.0 1 16
h 0.180225 1 4 tcp 1040 ------- 0 1.0 3.0 3 23
h 0.180225 1 4 tcp 1040 ------- 0 1.0 3.0 4 24
r 0.180316 4 0 ack 40 ------- 0 2.1 0.0 2 17
h 0.180316 0 4 tcp 1040 ------- 0 0.0 2.1 5 25
h 0.180316 0 4 tcp 1040 ------- 0 0.0 2.1 6 26
r 0.180405 4 1 ack 40 ------- 0 3.0 1.0 2 18
h 0.180405 1 4 tcp 1040 ------- 0 1.0 3.0 5 27
h 0.180405 1 4 tcp 1040 ------- 0 1.0 3.0 6 28
+ 0.19 2 4 cbr 210 ------- 0 2.0 1.1 8 20
- 0.19 2 4 cbr 210 ------- 0 2.0 1.1 8 20
h 0.19 2 4 cbr 210 ------- 0 2.0 1.1 9 29
r 0.190022 4 1 cbr 210 ------- 0 2.0 1.1 7 19
+ 0.190125 0 4 tcp 1040 ------- 0 0.0 2.1 3 21
- 0.190125 0 4 tcp 1040 ------- 0 0.0 2.1 3 21
+ 0.190125 0 4 tcp 1040 ------- 0 0.0 2.1 4 22
- 0.190211 0 4 tcp 1040 ------- 0 0.0 2.1 4 22
+ 0.190225 1 4 tcp 1040 ------- 0 1.0 3.0 3 23
- 0.190225 1 4 tcp 1040 ------- 0 1.0 3.0 3 23
+ 0.190225 1 4 tcp 1040 ------- 0 1.0 3.0 4 24
+ 0.190316 0 4 tcp 1040 ------- 0 0.0 2.1 5 25
- 0.190316 0 4 tcp 1040 ------- 0 0.0 2.1 5 25
+ 0.190316 0 4 tcp 1040 ------- 0 0.0 2.1 6 26
- 0.190385 1 4 tcp 1040 ------- 0 1.0 3.0 4 24
c 0.190389 0 4 tcp 1054 ------- 0 1.0 3.0 4 24
c 0.190393 1 4 tcp 1054 ------- 0 0.0 2.1 5 25
c 0.190399 0 4 tcp 1054 ------- 0 1.0 3.0 4 24
c 0.1904 1 4 tcp 1054 ------- 0 0.0 2.1 5 25
+ 0.190405 1 4 tcp 1040 ------- 0 1.0 3.0 5 27
+ 0.190405 1 4 tcp 1040 ------- 0 1.0 3.0 6 28
c 0.190414 1 4 tcp 1054 ------- 0 0.0 2.1 5 25
c 0.190415 0 4 tcp 1054 ------- 0 1.0 3.0 4 24
c 0.190424 0 4 tcp 1054 ------- 0 1.0 3.0 4 24
c 0.190426 1 4 tcp 1054 ------- 0 0.0 2.1 5 25
c 0.190497 0 4 tcp 1054 ------- 0 1.0 3.0 4 24
c 0.190501 1 4 tcp 1054 ------- 0 0.0 2.1 5 25
- 0.190593 1 4 tcp 1040 ------- 0 1.0 3.0 5 27
- 0.190678 1 4 tcp 1040 ------- 0 1.0 3.0 6 28
c 0.190682 0 4 tcp 1054 ------- 0 1.0 3.0 6 28
c 0.190686 1 4 tcp 1054 ------- 0 0.0 2.1 5 25
- 0.191081 0 4 tcp 1040 ------- 0 0.0 2.1 6 26
+ 0.2 2 4 cbr 210 ------- 0 2.0 1.1 9 29
- 0.2 2 4 cbr 210 ------- 0 2.0 1.1 9 29
h 0.2 2 4 cbr 210 ------- 0 2.0 1.1 10 30
r 0.200022 4 1 cbr 210 ------- 0 2.0 1.1 8 20
r 0.200214 4 2 tcp 1040 ------- 0 0.0 2.1 3 21
h 0.200214 2 4 ack 40 ------- 0 2.1 0.0 3 31
r 0.200299 4 2 tcp 1040 ------- 0 0.0 2.1 4 22
h 0.200299 2 4 ack 40 ------- 0 2.1 0.0 4 32
r 0.200388 4 3 tcp 1040 ------- 0 1.0 3.0 3 23
h 0.200388 3 4 ack 40 ------- 0 3.0 1.0 3 33
r 0.200596 4 3 tcp 1040 ------- 0 1.0 3.0 4 24
h 0.200596 3 4 ack 40 ------- 0 3.0 1.0 4 34
r 0.200681 4 3 tcp 1040 ------- 0 1.0 3.0 5 27
h 0.200681 3 4 ack 40 ------- 0 3.0 1.0 5 35
r 0.200776 4 3 tcp 1040 ------- 0 1.0 3.0 6 28
h 0.200776 3 4 ack 40 ------- 0 3.0 1.0 6 36
r 0.201084 4 2 tcp 1040 ------- 0 0.0 2.1 5 25
h 0.201084 2 4 ack 40 ------- 0 2.1 0.0 5 37
r 0.20117 4 2 tcp 1040 ------- 0 0.0 2.1 6 26
h 0.20117 2 4 ack 40 ------- 0 2.1 0.0 6 38
+ 0.21 2 4 cbr 210 ------- 0 2.0 1.1 10 30
- 0.21 2 4 cbr 210 ------- 0 2.0 1.1 10 30
h 0.21 2 4 cbr 210 ------- 0 2.0 1.1 11 39
r 0.210022 4 1 cbr 210 ------- 0 2.0 1.1 9 29
+ 0.210214 2 4 ack 40 ------- 0 2.1 0.0 3 31
- 0.210214 2 4 ack 40 ------- 0 2.1 0.0 3 31
+ 0.210299 2 4 ack 40 ------- 0 2.1 0.0 4 32
- 0.210299 2 4 ack 40 ------- 0 2.1 0.0 4 32
+ 0.210388 3 4 ack 40 ------- 0 3.0 1.0 3 33
- 0.210388 3 4 ack 40 ------- 0 3.0 1.0 3 33
+ 0.210596 3 4 ack 40 ------- 0 3.0 1.0 4 34
- 0.210596 3 4 ack 40 ------- 0 3.0 1.0 4 34
+ 0.210681 3 4 ack 40 ------- 0 3.0 1.0 5 35
- 0.210681 3 4 ack 40 ------- 0 3.0 1.0 5 35
+ 0.210776 3 4 ack 40 ------- 0 3.0 1.0 6 36
- 0.210776 3 4 ack 40 ------- 0 3.0 1.0 6 36
+ 0.211084 2 4 ack 40 ------- 0 2.1 0.0 5 37
- 0.211084 2 4 ack 40 ------- 0 2.1 0.0 5 37
+ 0.21117 2 4 ack 40 ------- 0 2.1 0.0 6 38
- 0.21117 2 4 ack 40 ------- 0 2.1 0.0 6 38
+ 0.22 2 4 cbr 210 ------- 0 2.0 1.1 11 39
- 0.22 2 4 cbr 210 ------- 0 2.0 1.1 11 39
h 0.22 2 4 cbr 210 ------- 0 2.0 1.1 12 40
r 0.220022 4 1 cbr 210 ------- 0 2.0 1.1 10 30
r 0.220223 4 0 ack 40 ------- 0 2.1 0.0 3 31
h 0.220223 0 4 tcp 1040 ------- 0 0.0 2.1 7 41
h 0.220223 0 4 tcp 1040 ------- 0 0.0 2.1 8 42
r 0.220308 4 0 ack 40 ------- 0 2.1 0.0 4 32
h 0.220308 0 4 tcp 1040 ------- 0 0.0 2.1 9 43
h 0.220308 0 4 tcp 1040 ------- 0 0.0 2.1 10 44
r 0.220397 4 1 ack 40 ------- 0 3.0 1.0 3 33
h 0.220397 1 4 tcp 1040 ------- 0 1.0 3.0 7 45
h 0.220397 1 4 tcp 1040 ------- 0 1.0 3.0 8 46
r 0.220605 4 1 ack 40 ------- 0 3.0 1.0 4 34
h 0.220605 1 4 tcp 1040 ------- 0 1.0 3.0 9 47
h 0.220605 1 4 tcp 1040 ------- 0 1.0 3.0 10 48
r 0.220691 4 1 ack 40 ------- 0 3.0 1.0 5 35
h 0.220691 1 4 tcp 1040 ------- 0 1.0 3.0 11 49
h 0.220691 1 4 tcp 1040 ------- 0 1.0 3.0 12 50
r 0.220785 4 1 ack 40 ------- 0 3.0 1.0 6 36
h 0.220785 1 4 tcp 1040 ------- 0 1.0 3.0 13 51
h 0.220785 1 4 tcp 1040 ------- 0 1.0 3.0 14 52
r 0.221093 4 0 ack 40 ------- 0 2.1 0.0 5 37
h 0.221093 0 4 tcp 1040 ------- 0 0.0 2.1 11 53
h 0.221093 0 4 tcp 1040 ------- 0 0.0 2.1 12 54
r 0.221179 4 0 ack 40 ------- 0 2.1 0.0 6 38
h 0.221179 0 4 tcp 1040 ------- 0 0.0 2.1 13 55
h 0.221179 0 4 tcp 1040 ------- 0 0.0 2.1 14 56
+ 0.23 2 4 cbr 210 ------- 0 2.0 1.1 12 40
- 0.23 2 4 cbr 210 ------- 0 2.0 1.1 12 40
h 0.23 2 4 cbr 210 ------- 0 2.0 1.1 13 57
r 0.230022 4 1 cbr 210 ------- 0 2.0 1.1 11 39
+ 0.230223 0 4 tcp 1040 ------- 0 0.0 2.1 7 41
- 0.230223 0 4 tcp 1040 ------- 0 0.0 2.1 7 41
+ 0.230223 0 4 tcp 1040 ------- 0 0.0 2.1 8 42
+ 0.230308 0 4 tcp 1040 ------- 0 0.0 2.1 9 43
+ 0.230308 0 4 tcp 1040 ------- 0 0.0 2.1 10 44
- 0.230308 0 4 tcp 1040 ------- 0 0.0 2.1 8 42
- 0.230393 0 4 tcp 1040 ------- 0 0.0 2.1 9 43
+ 0.230397 1 4 tcp 1040 ------- 0 1.0 3.0 7 45
- 0.230397 1 4 tcp 1040 ------- 0 1.0 3.0 7 45
+ 0.230397 1 4 tcp 1040 ------- 0 1.0 3.0 8 46
c 0.230397 1 4 tcp 1054 ------- 0 0.0 2.1 9 43
c 0.230401 0 4 tcp 1054 ------- 0 1.0 3.0 7 45
- 0.230484 1 4 tcp 1040 ------- 0 1.0 3.0 8 46
c 0.230488 0 4 tcp 1054 ------- 0 1.0 3.0 8 46
c 0.230492 1 4 tcp 1054 ------- 0 0.0 2.1 9 43
+ 0.230605 1 4 tcp 1040 ------- 0 1.0 3.0 9 47
- 0.230605 1 4 tcp 1040 ------- 0 1.0 3.0 9 47
+ 0.230605 1 4 tcp 1040 ------- 0 1.0 3.0 10 48
- 0.230673 0 4 tcp 1040 ------- 0 0.0 2.1 10 44
c 0.230677 1 4 tcp 1054 ------- 0 0.0 2.1 10 44
c 0.230681 0 4 tcp 1054 ------- 0 1.0 3.0 9 47
c 0.230687 0 4 tcp 1054 ------- 0 1.0 3.0 9 47
+ 0.230691 1 4 tcp 1040 ------- 0 1.0 3.0 11 49
+ 0.230691 1 4 tcp 1040 ------- 0 1.0 3.0 12 50
c 0.230691 1 4 tcp 1054 ------- 0 0.0 2.1 10 44
- 0.230778 1 4 tcp 1040 ------- 0 1.0 3.0 10 48
c 0.230782 0 4 tcp 1054 ------- 0 1.0 3.0 10 48
+ 0.230785 1 4 tcp 1040 ------- 0 1.0 3.0 13 51
+ 0.230785 1 4 tcp 1040 ------- 0 1.0 3.0 14 52
c 0.230786 1 4 tcp 1054 ------- 0 0.0 2.1 10 44
c 0.230791 0 4 tcp 1054 ------- 0 1.0 3.0 10 48
c 0.230792 1 4 tcp 1054 ------- 0 0.0 2.1 10 44
- 0.230884 1 4 tcp 1040 ------- 0 1.0 3.0 11 49
c 0.230888 0 4 tcp 1054 ------- 0 1.0 3.0 11 49
c 0.230892 1 4 tcp 1054 ------- 0 0.0 2.1 10 44
- 0.230979 1 4 tcp 1040 ------- 0 1.0 3.0 12 50
- 0.231064 1 4 tcp 1040 ------- 0 1.0 3.0 13 51
c 0.231068 0 4 tcp 1054 ------- 0 1.0 3.0 13 51
c 0.231072 1 4 tcp 1054 ------- 0 0.0 2.1 10 44
+ 0.231093 0 4 tcp 1040 ------- 0 0.0 2.1 11 53
+ 0.231093 0 4 tcp 1040 ------- 0 0.0 2.1 12 54
- 0.231164 1 4 tcp 1040 ------- 0 1.0 3.0 14 52
+ 0.231179 0 4 tcp 1040 ------- 0 0.0 2.1 13 55
+ 0.231179 0 4 tcp 1040 ------- 0 0.0 2.1 14 56
- 0.231477 0 4 tcp 1040 ------- 0 0.0 2.1 11 53
- 0.231562 0 4 tcp 1040 ------- 0 0.0 2.1 12 54
- 0.231648 0 4 tcp 1040 ------- 0 0.0 2.1 13 55
- 0.231733 0 4 tcp 1040 ------- 0 0.0 2.1 14 56
+ 0.24 2 4 cbr 210 ------- 0 2.0 1.1 13 57
- 0.24 2 4 cbr 210 ------- 0 2.0 1.1 13 57
h 0.24 2 4 cbr 210 ------- 0 2.0 1.1 14 58
r 0.240022 4 1 cbr 210 ------- 0 2.0 1.1 12 40
r 0.240311 4 2 tcp 1040 ------- 0 0.0 2.1 7 41
h 0.240311 2 4 ack 40 ------- 0 2.1 0.0 7 59
r 0.240396 4 2 tcp 1040 ------- 0 0.0 2.1 8 42
h 0.240396 2 4 ack 40 ------- 0 2.1 0.0 8 60
r 0.240487 4 3 tcp 1040 ------- 0 1.0 3.0 7 45
h 0.240487 3 4 ack 40 ------- 0 3.0 1.0 7 61
r 0.240587 4 3 tcp 1040 ------- 0 1.0 3.0 8 46
h 0.240587 3 4 ack 40 ------- 0 3.0 1.0 8 62
r 0.240676 4 2 tcp 1040 ------- 0 0.0 2.1 9 43
h 0.240676 2 4 ack 40 ------- 0 2.1 0.0 9 63
r 0.240781 4 3 tcp 1040 ------- 0 1.0 3.0 9 47
h 0.240781 3 4 ack 40 ------- 0 3.0 1.0 9 64
r 0.240887 4 3 tcp 1040 ------- 0 1.0 3.0 10 48
h 0.240887 3 4 ack 40 ------- 0 3.0 1.0 10 65
r 0.240982 4 3 tcp 1040 ------- 0 1.0 3.0 11 49
h 0.240982 3 4 ack 40 ------- 0 3.0 1.0 11 66
r 0.241067 4 3 tcp 1040 ------- 0 1.0 3.0 12 50
h 0.241067 3 4 ack 40 ------- 0 3.0 1.0 12 67
r 0.241167 4 3 tcp 1040 ------- 0 1.0 3.0 13 51
h 0.241167 3 4 ack 40 ------- 0 3.0 1.0 13 68
r 0.241252 4 3 tcp 1040 ------- 0 1.0 3.0 14 52
h 0.241252 3 4 ack 40 ------- 0 3.0 1.0 14 69
r 0.24148 4 2 tcp 1040 ------- 0 0.0 2.1 10 44
h 0.24148 2 4 ack 40 ------- 0 2.1 0.0 10 70
r 0.241565 4 2 tcp 1040 ------- 0 0.0 2.1 11 53
h 0.241565 2 4 ack 40 ------- 0 2.1 0.0 11 71
r 0.241651 4 2 tcp 1040 ------- 0 0.0 2.1 12 54
h 0.241651 2 4 ack 40 ------- 0 2.1 0.0 12 72
r 0.241736 4 2 tcp 1040 ------- 0 0.0 2.1 13 55
h 0.241736 2 4 ack 40 ------- 0 2.1 0.0 13 73
r 0.241821 4 2 tcp 1040 ------- 0 0.0 2.1 14 56
h 0.241821 2 4 ack 40 ------- 0 2.1 0.0 14 74
+ 0.25 2 4 cbr 210 ------- 0 2.0 1.1 14 58
- 0.25 2 4 cbr 210 ------- 0 2.0 1.1 14 58
h 0.25 2 4 cbr 210 ------- 0 2.0 1.1 15 75
r 0.250022 4 1 cbr 210 ------- 0 2.0 1.1 13 57
+ 0.250311 2 4 ack 40 ------- 0 2.1 0.0 7 59
- 0.250311 2 4 ack 40 ------- 0 2.1 0.0 7 59
+ 0.250396 2 4 ack 40 ------- 0 2.1 0.0 8 60
- 0.250396 2 4 ack 40 ------- 0 2.1 0.0 8 60
+ 0.250487 3 4 ack 40 ------- 0 3.0 1.0 7 61
- 0.250487 3 4 ack 40 ------- 0 3.0 1.0 7 61
+ 0.250587 3 4 ack 40 ------- 0 3.0 1.0 8 62
- 0.250587 3 4 ack 40 ------- 0 3.0 1.0 8 62
+ 0.250676 2 4 ack 40 ------- 0 2.1 0.0 9 63
- 0.250676 2 4 ack 40 ------- 0 2.1 0.0 9 63
+ 0.250781 3 4 ack 40 ------- 0 3.0 1.0 9 64
- 0.250781 3 4 ack 40 ------- 0 3.0 1.0 9 64
+ 0.250887 3 4 ack 40 ------- 0 3.0 1.0 10 65
- 0.250887 3 4 ack 40 ------- 0 3.0 1.0 10 65
+ 0.250982 3 4 ack 40 ------- 0 3.0 1.0 11 66
- 0.250982 3 4 ack 40 ------- 0 3.0 1.0 11 66
+ 0.251067 3 4 ack 40 ------- 0 3.0 1.0 12 67
- 0.251067 3 4 ack 40 ------- 0 3.0 1.0 12 67
+ 0.251167 3 4 ack 40 ------- 0 3.0 1.0 13 68
- 0.251167 3 4 ack 40 ------- 0 3.0 1.0 13 68
+ 0.251252 3 4 ack 40 ------- 0 3.0 1.0 14 69
- 0.251252 3 4 ack 40 ------- 0 3.0 1.0 14 69
+ 0.25148 2 4 ack 40 ------- 0 2.1 0.0 10 70
- 0.25148 2 4 ack 40 ------- 0 2.1 0.0 10 70
+ 0.251565 2 4 ack 40 ------- 0 2.1 0.0 11 71
- 0.251565 2 4 ack 40 ------- 0 2.1 0.0 11 71
+ 0.251651 2 4 ack 40 ------- 0 2.1 0.0 12 72
- 0.251651 2 4 ack 40 ------- 0 2.1 0.0 12 72
+ 0.251736 2 4 ack 40 ------- 0 2.1 0.0 13 73
- 0.251736 2 4 ack 40 ------- 0 2.1 0.0 13 73
+ 0.251821 2 4 ack 40 ------- 0 2.1 0.0 14 74
- 0.251821 2 4 ack 40 ------- 0 2.1 0.0 14 74
+ 0.26 2 4 cbr 210 ------- 0 2.0 1.1 15 75
- 0.26 2 4 cbr 210 ------- 0 2.0 1.1 15 75
h 0.26 2 4 cbr 210 ------- 0 2.0 1.1 16 76
r 0.260022 4 1 cbr 210 ------- 0 2.0 1.1 14 58
r 0.26032 4 0 ack 40 ------- 0 2.1 0.0 7 59
h 0.26032 0 4 tcp 1040 ------- 0 0.0 2.1 15 77
h 0.26032 0 4 tcp 1040 ------- 0 0.0 2.1 16 78
r 0.260406 4 0 ack 40 ------- 0 2.1 0.0 8 60
h 0.260406 0 4 tcp 1040 ------- 0 0.0 2.1 17 79
h 0.260406 0 4 tcp 1040 ------- 0 0.0 2.1 18 80
r 0.260496 4 1 ack 40 ------- 0 3.0 1.0 7 61
h 0.260496 1 4 tcp 1040 ------- 0 1.0 3.0 15 81
h 0.260496 1 4 tcp 1040 ------- 0 1.0 3.0 16 82
r 0.260596 4 1 ack 40 ------- 0 3.0 1.0 8 62
h 0.260596 1 4 tcp 1040 ------- 0 1.0 3.0 17 83
h 0.260596 1 4 tcp 1040 ------- 0 1.0 3.0 18 84
r 0.260685 4 0 ack 40 ------- 0 2.1 0.0 9 63
h 0.260685 0 4 tcp 1040 ------- 0 0.0 2.1 19 85
h 0.260685 0 4 tcp 1040 ------- 0 0.0 2.1 20 86
r 0.26079 4 1 ack 40 ------- 0 3.0 1.0 9 64
h 0.26079 1 4 tcp 1040 ------- 0 1.0 3.0 19 87
h 0.26079 1 4 tcp 1040 ------- 0 1.0 3.0 20 88
r 0.260896 4 1 ack 40 ------- 0 3.0 1.0 10 65
h 0.260896 1 4 tcp 1040 ------- 0 1.0 3.0 21 89
h 0.260896 1 4 tcp 1040 ------- 0 1.0 3.0 22 90
r 0.260991 4 1 ack 40 ------- 0 3.0 1.0 11 66
h 0.260991 1 4 tcp 1040 ------- 0 1.0 3.0 23 91
h 0.260991 1 4 tcp 1040 ------- 0 1.0 3.0 24 92
r 0.261076 4 1 ack 40 ------- 0 3.0 1.0 12 67
h 0.261076 1 4 tcp 1040 ------- 0 1.0 3.0 25 93
h 0.261076 1 4 tcp 1040 ------- 0 1.0 3.0 26 94
r 0.261176 4 1 ack 40 ------- 0 3.0 1.0 13 68
h 0.261176 1 4 tcp 1040 ------- 0 1.0 3.0 27 95
h 0.261176 1 4 tcp 1040 ------- 0 1.0 3.0 28 96
r 0.261261 4 1 ack 40 ------- 0 3.0 1.0 14 69
h 0.261261 1 4 tcp 1040 ------- 0 1.0 3.0 29 97
h 0.261261 1 4 tcp 1040 ------- 0 1.0 3.0 30 98
r 0.261489 4 0 ack 40 ------- 0 2.1 0.0 10 70
h 0.261489 0 4 tcp 1040 ------- 0 0.0 2.1 21 99
h 0.261489 0 4 tcp 1040 ------- 0 0.0 2.1 22 100
r 0.261574 4 0 ack 40 ------- 0 2.1 0.0 11 71
h 0.261574 0 4 tcp 1040 ------- 0 0.0 2.1 23 101
h 0.261574 0 4 tcp 1040 ------- 0 0.0 2.1 24 102
r 0.26166 4 0 ack 40 ------- 0 2.1 0.0 12 72
h 0.26166 0 4 tcp 1040 ------- 0 0.0 2.1 25 103
h 0.26166 0 4 tcp 1040 ------- 0 0.0 2.1 26 104
r 0.261745 4 0 ack 40 ------- 0 2.1 0.0 13 73
h 0.261745 0 4 tcp 1040 ------- 0 0.0 2.1 27 105
h 0.261745 0 4 tcp 1040 ------- 0 0.0 2.1 28 106
r 0.26183 4 0 ack 40 ------- 0 2.1 0.0 14 74
h 0.26183 0 4 tcp 1040 ------- 0 0.0 2.1 29 107
h 0.26183 0 4 tcp 1040 ------- 0 0.0 2.1 30 108
+ 0.27 2 4 cbr 210 ------- 0 2.0 1.1 16 76
- 0.27 2 4 cbr 210 ------- 0 2.0 1.1 16 76
h 0.27 2 4 cbr 210 ------- 0 2.0 1.1 17 109
r 0.270022 4 1 cbr 210 ------- 0 2.0 1.1 15 75
+ 0.27032 0 4 tcp 1040 ------- 0 0.0 2.1 15 77
- 0.27032 0 4 tcp 1040 ------- 0 0.0 2.1 15 77
+ 0.27032 0 4 tcp 1040 ------- 0 0.0 2.1 16 78
+ 0.270406 0 4 tcp 1040 ------- 0 0.0 2.1 17 79
+ 0.270406 0 4 tcp 1040 ------- 0 0.0 2.1 18 80
- 0.270406 0 4 tcp 1040 ------- 0 0.0 2.1 16 78
- 0.270491 0 4 tcp 1040 ------- 0 0.0 2.1 17 79
+ 0.270496 1 4 tcp 1040 ------- 0 1.0 3.0 15 81
- 0.270496 1 4 tcp 1040 ------- 0 1.0 3.0 15 81
+ 0.270496 1 4 tcp 1040 ------- 0 1.0 3.0 16 82
- 0.270576 0 4 tcp 1040 ------- 0 0.0 2.1 18 80
c 0.27058 1 4 tcp 1054 ------- 0 0.0 2.1 18 80
c 0.270584 0 4 tcp 1054 ------- 0 1.0 3.0 15 81
c 0.270589 1 4 tcp 1054 ------- 0 0.0 2.1 18 80
c 0.270591 0 4 tcp 1054 ------- 0 1.0 3.0 15 81
+ 0.270596 1 4 tcp 1040 ------- 0 1.0 3.0 17 83
+ 0.270596 1 4 tcp 1040 ------- 0 1.0 3.0 18 84
- 0.270676 1 4 tcp 1040 ------- 0 1.0 3.0 16 82
c 0.27068 0 4 tcp 1054 ------- 0 1.0 3.0 16 82
c 0.270684 1 4 tcp 1054 ------- 0 0.0 2.1 18 80
+ 0.270685 0 4 tcp 1040 ------- 0 0.0 2.1 19 85
+ 0.270685 0 4 tcp 1040 ------- 0 0.0 2.1 20 86
- 0.270776 1 4 tcp 1040 ------- 0 1.0 3.0 17 83
c 0.27078 0 4 tcp 1054 ------- 0 1.0 3.0 17 83
c 0.270784 1 4 tcp 1054 ------- 0 0.0 2.1 18 80
+ 0.27079 1 4 tcp 1040 ------- 0 1.0 3.0 19 87
+ 0.27079 1 4 tcp 1040 ------- 0 1.0 3.0 20 88
- 0.270875 1 4 tcp 1040 ------- 0 1.0 3.0 18 84
c 0.270879 0 4 tcp 1054 ------- 0 1.0 3.0 18 84
c 0.270883 1 4 tcp 1054 ------- 0 0.0 2.1 18 80
+ 0.270896 1 4 tcp 1040 ------- 0 1.0 3.0 21 89
+ 0.270896 1 4 tcp 1040 ------- 0 1.0 3.0 22 90
- 0.27097 1 4 tcp 1040 ------- 0 1.0 3.0 19 87
c 0.270974 0 4 tcp 1054 ------- 0 1.0 3.0 19 87
c 0.270978 1 4 tcp 1054 ------- 0 0.0 2.1 18 80
+ 0.270991 1 4 tcp 1040 ------- 0 1.0 3.0 23 91
+ 0.270991 1 4 tcp 1040 ------- 0 1.0 3.0 24 92
- 0.27107 1 4 tcp 1040 ------- 0 1.0 3.0 20 88
+ 0.271076 1 4 tcp 1040 ------- 0 1.0 3.0 25 93
+ 0.271076 1 4 tcp 1040 ------- 0 1.0 3.0 26 94
- 0.271155 1 4 tcp 1040 ------- 0 1.0 3.0 21 89
+ 0.271176 1 4 tcp 1040 ------- 0 1.0 3.0 27 95
+ 0.271176 1 4 tcp 1040 ------- 0 1.0 3.0 28 96
- 0.27124 1 4 tcp 1040 ------- 0 1.0 3.0 22 90
+ 0.271261 1 4 tcp 1040 ------- 0 1.0 3.0 29 97
+ 0.271261 1 4 tcp 1040 ------- 0 1.0 3.0 30 98
- 0.271325 1 4 tcp 1040 ------- 0 1.0 3.0 23 91
c 0.271329 0 4 tcp 1054 ------- 0 1.0 3.0 23 91
c 0.271333 1 4 tcp 1054 ------- 0 0.0 2.1 18 80
- 0.27142 1 4 tcp 1040 ------- 0 1.0 3.0 24 92
+ 0.271489 0 4 tcp 1040 ------- 0 0.0 2.1 21 99
+ 0.271489 0 4 tcp 1040 ------- 0 0.0 2.1 22 100
- 0.271505 1 4 tcp 1040 ------- 0 1.0 3.0 25 93
+ 0.271574 0 4 tcp 1040 ------- 0 0.0 2.1 23 101
+ 0.271574 0 4 tcp 1040 ------- 0 0.0 2.1 24 102
- 0.271591 1 4 tcp 1040 ------- 0 1.0 3.0 26 94
+ 0.27166 0 4 tcp 1040 ------- 0 0.0 2.1 25 103
+ 0.27166 0 4 tcp 1040 ------- 0 0.0 2.1 26 104
- 0.271676 1 4 tcp 1040 ------- 0 1.0 3.0 27 95
+ 0.271745 0 4 tcp 1040 ------- 0 0.0 2.1 27 105
+ 0.271745 0 4 tcp 1040 ------- 0 0.0 2.1 28 106
- 0.271761 1 4 tcp 1040 ------- 0 1.0 3.0 28 96
+ 0.27183 0 4 tcp 1040 ------- 0 0.0 2.1 29 107
+ 0.27183 0 4 tcp 1040 ------- 0 0.0 2.1 30 108
- 0.271846 1 4 tcp 1040 ------- 0 1.0 3.0 29 97
- 0.271932 1 4 tcp 1040 ------- 0 1.0 3.0 30 98
- 0.272106 0 4 tcp 1040 ------- 0 0.0 2.1 19 85
- 0.272192 0 4 tcp 1040 ------- 0 0.0 2.1 20 86
- 0.272277 0 4 tcp 1040 ------- 0 0.0 2.1 21 99
- 0.272362 0 4 tcp 1040 ------- 0 0.0 2.1 22 100
- 0.272447 0 4 tcp 1040 ------- 0 0.0 2.1 23 101
- 0.272533 0 4 tcp 1040 ------- 0 0.0 2.1 24 102
- 0.272618 0 4 tcp 1040 ------- 0 0.0 2.1 25 103
- 0.272703 0 4 tcp 1040 ------- 0 0.0 2.1 26 104
- 0.272788 0 4 tcp 1040 ------- 0 0.0 2.1 27 105
- 0.272874 0 4 tcp 1040 ------- 0 0.0 2.1 28 106
- 0.272959 0 4 tcp 1040 ------- 0 0.0 2.1 29 107
- 0.273044 0 4 tcp 1040 ------- 0 0.0 2.1 30 108
+ 0.28 2 4 cbr 210 ------- 0 2.0 1.1 17 109
- 0.28 2 4 cbr 210 ------- 0 2.0 1.1 17 109
h 0.28 2 4 cbr 210 ------- 0 2.0 1.1 18 110
r 0.280022 4 1 cbr 210 ------- 0 2.0 1.1 16 76
r 0.280409 4 2 tcp 1040 ------- 0 0.0 2.1 15 77
h 0.280409 2 4 ack 40 ------- 0 2.1 0.0 15 111
r 0.280494 4 2 tcp 1040 ------- 0 0.0 2.1 16 78
h 0.280494 2 4 ack 40 ------- 0 2.1 0.0 16 112
r 0.280579 4 2 tcp 1040 ------- 0 0.0 2.1 17 79
h 0.280579 2 4 ack 40 ------- 0 2.1 0.0 17 113
r 0.280679 4 3 tcp 1040 ------- 0 1.0 3.0 15 81
h 0.280679 3 4 ack 40 ------- 0 3.0 1.0 15 114
r 0.280779 4 3 tcp 1040 ------- 0 1.0 3.0 16 82
h 0.280779 3 4 ack 40 ------- 0 3.0 1.0 16 115
r 0.280878 4 3 tcp 1040 ------- 0 1.0 3.0 17 83
h 0.280878 3 4 ack 40 ------- 0 3.0 1.0 17 116
r 0.280973 4 3 tcp 1040 ------- 0 1.0 3.0 18 84
h 0.280973 3 4 ack 40 ------- 0 3.0 1.0 18 117
r 0.281073 4 3 tcp 1040 ------- 0 1.0 3.0 19 87
h 0.281073 3 4 ack 40 ------- 0 3.0 1.0 19 118
r 0.281158 4 3 tcp 1040 ------- 0 1.0 3.0 20 88
h 0.281158 3 4 ack 40 ------- 0 3.0 1.0 20 119
r 0.281243 4 3 tcp 1040 ------- 0 1.0 3.0 21 89
h 0.281243 3 4 ack 40 ------- 0 3.0 1.0 21 120
r 0.281328 4 3 tcp 1040 ------- 0 1.0 3.0 22 90
h 0.281328 3 4 ack 40 ------- 0 3.0 1.0 22 121
r 0.281423 4 3 tcp 1040 ------- 0 1.0 3.0 23 91
h 0.281423 3 4 ack 40 ------- 0 3.0 1.0 23 122
r 0.281508 4 3 tcp 1040 ------- 0 1.0 3.0 24 92
h 0.281508 3 4 ack 40 ------- 0 3.0 1.0 24 123
r 0.281594 4 3 tcp 1040 ------- 0 1.0 3.0 25 93
h 0.281594 3 4 ack 40 ------- 0 3.0 1.0 25 124
r 0.281679 4 3 tcp 1040 ------- 0 1.0 3.0 26 94
h 0.281679 3 4 ack 40 ------- 0 3.0 1.0 26 125
r 0.281764 4 3 tcp 1040 ------- 0 1.0 3.0 27 95
h 0.281764 3 4 ack 40 ------- 0 3.0 1.0 27 126
r 0.281849 4 3 tcp 1040 ------- 0 1.0 3.0 28 96
h 0.281849 3 4 ack 40 ------- 0 3.0 1.0 28 127
r 0.281935 4 3 tcp 1040 ------- 0 1.0 3.0 29 97
h 0.281935 3 4 ack 40 ------- 0 3.0 1.0 29 128
r 0.28202 4 3 tcp 1040 ------- 0 1.0 3.0 30 98
h 0.28202 3 4 ack 40 ------- 0 3.0 1.0 30 129
r 0.282109 4 2 tcp 1040 ------- 0 0.0 2.1 18 80
h 0.282109 2 4 ack 40 ------- 0 2.1 0.0 18 130
r 0.282195 4 2 tcp 1040 ------- 0 0.0 2.1 19 85
h 0.282195 2 4 ack 40 ------- 0 2.1 0.0 19 131
r 0.28228 4 2 tcp 1040 ------- 0 0.0 2.1 20 86
h 0.28228 2 4 ack 40 ------- 0 2.1 0.0 20 132
r 0.282365 4 2 tcp 1040 ------- 0 0.0 2.1 21 99
h 0.282365 2 4 ack 40 ------- 0 2.1 0.0 21 133
r 0.28245 4 2 tcp 1040 ------- 0 0.0 2.1 22 100
h 0.28245 2 4 ack 40 ------- 0 2.1 0.0 22 134
r 0.282536 4 2 tcp 1040 ------- 0 0.0 2.1 23 101
h 0.282536 2 4 ack 40 ------- 0 2.1 0.0 23 135
r 0.282621 4 2 tcp 1040 ------- 0 0.0 2.1 24 102
h 0.282621 2 4 ack 40 ------- 0 2.1 0.0 24 136
r 0.282706 4 2 tcp 1040 ------- 0 0.0 2.1 25 103
h 0.282706 2 4 ack 40 ------- 0 2.1 0.0 25 137
r 0.282792 4 2 tcp 1040 ------- 0 0.0 2.1 26 104
h 0.282792 2 4 ack 40 ------- 0 2.1 0.0 26 138
r 0.282877 4 2 tcp 1040 ------- 0 0.0 2.1 27 105
h 0.282877 2 4 ack 40 ------- 0 2.1 0.0 27 139
r 0.282962 4 2 tcp 1040 ------- 0 0.0 2.1 28 106
h 0.282962 2 4 ack 40 ------- 0 2.1 0.0 28 140
r 0.283047 4 2 tcp 1040 ------- 0 0.0 2.1 29 107
h 0.283047 2 4 ack 40 ------- 0 2.1 0.0 29 141
r 0.283133 4 2 tcp 1040 ------- 0 0.0 2.1 30 108
h 0.283133 2 4 ack 40 ------- 0 2.1 0.0 30 142
+ 0.29 2 4 cbr 210 ------- 0 2.0 1.1 18 110
- 0.29 2 4 cbr 210 ------- 0 2.0 1.1 18 110
h 0.29 2 4 cbr 210 ------- 0 2.0 1.1 19 143
r 0.290022 4 1 cbr 210 ------- 0 2.0 1.1 17 109
+ 0.290409 2 4 ack 40 ------- 0 2.1 0.0 15 111
- 0.290409 2 4 ack 40 ------- 0 2.1 0.0 15 111
+ 0.290494 2 4 ack 40 ------- 0 2.1 0.0 16 112
- 0.290494 2 4 ack 40 ------- 0 2.1 0.0 16 112
+ 0.290579 2 4 ack 40 ------- 0 2.1 0.0 17 113
- 0.290579 2 4 ack 40 ------- 0 2.1 0.0 17 113
+ 0.290679 3 4 ack 40 ------- 0 3.0 1.0 15 114
- 0.290679 3 4 ack 40 ------- 0 3.0 1.0 15 114
+ 0.290779 3 4 ack 40 ------- 0 3.0 1.0 16 115
- 0.290779 3 4 ack 40 ------- 0 3.0 1.0 16 115
+ 0.290878 3 4 ack 40 ------- 0 3.0 1.0 17 116
- 0.290878 3 4 ack 40 ------- 0 3.0 1.0 17 116
+ 0.290973 3 4 ack 40 ------- 0 3.0 1.0 18 117
- 0.290973 3 4 ack 40 ------- 0 3.0 1.0 18 117
+ 0.291073 3 4 ack 40 ------- 0 3.0 1.0 19 118
- 0.291073 3 4 ack 40 ------- 0 3.0 1.0 19 118
+ 0.291158 3 4 ack 40 ------- 0 3.0 1.0 20 119
- 0.291158 3 4 ack 40 ------- 0 3.0 1.0 20 119
+ 0.291243 3 4 ack 40 ------- 0 3.0 1.0 21 120
- 0.291243 3 4 ack 40 ------- 0 3.0 1.0 21 120
+ 0.291328 3 4 ack 40 ------- 0 3.0 1.0 22 121
- 0.291328 3 4 ack 40 ------- 0 3.0 1.0 22 121
+ 0.291423 3 4 ack 40 ------- 0 3.0 1.0 23 122
- 0.291423 3 4 ack 40 ------- 0 3.0 1.0 23 122
+ 0.291508 3 4 ack 40 ------- 0 3.0 1.0 24 123
- 0.291508 3 4 ack 40 ------- 0 3.0 1.0 24 123
+ 0.291594 3 4 ack 40 ------- 0 3.0 1.0 25 124
- 0.291594 3 4 ack 40 ------- 0 3.0 1.0 25 124
+ 0.291679 3 4 ack 40 ------- 0 3.0 1.0 26 125
- 0.291679 3 4 ack 40 ------- 0 3.0 1.0 26 125
+ 0.291764 3 4 ack 40 ------- 0 3.0 1.0 27 126
- 0.291764 3 4 ack 40 ------- 0 3.0 1.0 27 126
+ 0.291849 3 4 ack 40 ------- 0 3.0 1.0 28 127
- 0.291849 3 4 ack 40 ------- 0 3.0 1.0 28 127
+ 0.291935 3 4 ack 40 ------- 0 3.0 1.0 29 128
- 0.291935 3 4 ack 40 ------- 0 3.0 1.0 29 128
+ 0.29202 3 4 ack 40 ------- 0 3.0 1.0 30 129
- 0.29202 3 4 ack 40 ------- 0 3.0 1.0 30 129
+ 0.292109 2 4 ack 40 ------- 0 2.1 0.0 18 130
- 0.292109 2 4 ack 40 ------- 0 2.1 0.0 18 130
+ 0.292195 2 4 ack 40 ------- 0 2.1 0.0 19 131
- 0.292195 2 4 ack 40 ------- 0 2.1 0.0 19 131
+ 0.29228 2 4 ack 40 ------- 0 2.1 0.0 20 132
- 0.29228 2 4 ack 40 ------- 0 2.1 0.0 20 132
+ 0.292365 2 4 ack 40 ------- 0 2.1 0.0 21 133
- 0.292365 2 4 ack 40 ------- 0 2.1 0.0 21 133
+ 0.29245 2 4 ack 40 ------- 0 2.1 0.0 22 134
- 0.29245 2 4 ack 40 ------- 0 2.1 0.0 22 134
+ 0.292536 2 4 ack 40 ------- 0 2.1 0.0 23 135
- 0.292536 2 4 ack 40 ------- 0 2.1 0.0 23 135
+ 0.292621 2 4 ack 40 ------- 0 2.1 0.0 24 136
- 0.292621 2 4 ack 40 ------- 0 2.1 0.0 24 136
+ 0.292706 2 4 ack 40 ------- 0 2.1 0.0 25 137
- 0.292706 2 4 ack 40 ------- 0 2.1 0.0 25 137
+ 0.292792 2 4 ack 40 ------- 0 2.1 0.0 26 138
- 0.292792 2 4 ack 40 ------- 0 2.1 0.0 26 138
+ 0.292877 2 4 ack 40 ------- 0 2.1 0.0 27 139
- 0.292877 2 4 ack 40 ------- 0 2.1 0.0 27 139
+ 0.292962 2 4 ack 40 ------- 0 2.1 0.0 28 140
- 0.292962 2 4 ack 40 ------- 0 2.1 0.0 28 140
+ 0.293047 2 4 ack 40 ------- 0 2.1 0.0 29 141
- 0.293047 2 4 ack 40 ------- 0 2.1 0.0 29 141
+ 0.293133 2 4 ack 40 ------- 0 2.1 0.0 30 142
- 0.293133 2 4 ack 40 ------- 0 2.1 0.0 30 142
+ 0.3 2 4 cbr 210 ------- 0 2.0 1.1 19 143
- 0.3 2 4 cbr 210 ------- 0 2.0 1.1 19 143
h 0.3 2 4 cbr 210 ------- 0 2.0 1.1 20 144
r 0.300022 4 1 cbr 210 ------- 0 2.0 1.1 18 110
r 0.300418 4 0 ack 40 ------- 0 2.1 0.0 15 111
h 0.300418 0 4 tcp 1040 ------- 0 0.0 2.1 31 145
h 0.300418 0 4 tcp 1040 ------- 0 0.0 2.1 32 146
r 0.300503 4 0 ack 40 ------- 0 2.1 0.0 16 112
h 0.300503 0 4 tcp 1040 ------- 0 0.0 2.1 33 147
h 0.300503 0 4 tcp 1040 ------- 0 0.0 2.1 34 148
r 0.300588 4 0 ack 40 ------- 0 2.1 0.0 17 113
h 0.300588 0 4 tcp 1040 ------- 0 0.0 2.1 35 149
h 0.300588 0 4 tcp 1040 ------- 0 0.0 2.1 36 150
r 0.300688 4 1 ack 40 ------- 0 3.0 1.0 15 114
h 0.300688 1 4 tcp 1040 ------- 0 1.0 3.0 31 151
h 0.300688 1 4 tcp 1040 ------- 0 1.0 3.0 32 152
r 0.300788 4 1 ack 40 ------- 0 3.0 1.0 16 115
h 0.300788 1 4 tcp 1040 ------- 0 1.0 3.0 33 153
h 0.300788 1 4 tcp 1040 ------- 0 1.0 3.0 34 154
r 0.300888 4 1 ack 40 ------- 0 3.0 1.0 17 116
h 0.300888 1 4 tcp 1040 ------- 0 1.0 3.0 35 155
h 0.300888 1 4 tcp 1040 ------- 0 1.0 3.0 36 156
r 0.300982 4 1 ack 40 ------- 0 3.0 1.0 18 117
h 0.300982 1 4 tcp 1040 ------- 0 1.0 3.0 37 157
h 0.300982 1 4 tcp 1040 ------- 0 1.0 3.0 38 158
r 0.301082 4 1 ack 40 ------- 0 3.0 1.0 19 118
h 0.301082 1 4 tcp 1040 ------- 0 1.0 3.0 39 159
r 0.301167 4 1 ack 40 ------- 0 3.0 1.0 20 119
h 0.301167 1 4 tcp 1040 ------- 0 1.0 3.0 40 160
r 0.301252 4 1 ack 40 ------- 0 3.0 1.0 21 120
h 0.301252 1 4 tcp 1040 ------- 0 1.0 3.0 41 161
r 0.301338 4 1 ack 40 ------- 0 3.0 1.0 22 121
h 0.301338 1 4 tcp 1040 ------- 0 1.0 3.0 42 162
r 0.301432 4 1 ack 40 ------- 0 3.0 1.0 23 122
h 0.301432 1 4 tcp 1040 ------- 0 1.0 3.0 43 163
r 0.301517 4 1 ack 40 ------- 0 3.0 1.0 24 123
h 0.301517 1 4 tcp 1040 ------- 0 1.0 3.0 44 164
r 0.301603 4 1 ack 40 ------- 0 3.0 1.0 25 124
h 0.301603 1 4 tcp 1040 ------- 0 1.0 3.0 45 165
r 0.301688 4 1 ack 40 ------- 0 3.0 1.0 26 125
h 0.301688 1 4 tcp 1040 ------- 0 1.0 3.0 46 166
r 0.301773 4 1 ack 40 ------- 0 3.0 1.0 27 126
h 0.301773 1 4 tcp 1040 ------- 0 1.0 3.0 47 167
r 0.301859 4 1 ack 40 ------- 0 3.0 1.0 28 127
h 0.301859 1 4 tcp 1040 ------- 0 1.0 3.0 48 168
r 0.301944 4 1 ack 40 ------- 0 3.0 1.0 29 128
h 0.301944 1 4 tcp 1040 ------- 0 1.0 3.0 49 169
r 0.302029 4 1 ack 40 ------- 0 3.0 1.0 30 129
h 0.302029 1 4 tcp 1040 ------- 0 1.0 3.0 50 170
r 0.302118 4 0 ack 40 ------- 0 2.1 0.0 18 130