M 0.00000 0 (10.00, 100.00, 0.00), (10.00, 100.00), 15.00
M 0.00000 1 (100.00, 100.00, 0.00), (100.00, 100.00), 15.00
s 0.029290548 _1_ RTR  --- 0 message 32 [0 0 0 0] ------- [1:255 -1:255 32 0] 
s 0.029365548 _1_ MAC  --- 0 message 90 [0 ffffffff 1 800] ------- [1:255 -1:255 32 0] 
r 0.030085848 _0_ MAC  --- 0 message 32 [0 ffffffff 1 800] ------- [1:255 -1:255 32 0] 
r 0.030110848 _0_ RTR  --- 0 message 32 [0 ffffffff 1 800] ------- [1:255 -1:255 32 0] 
s 1.000000000 _0_ AGT  --- 1 tcp 40 [0 0 0 0] ------- [0:0 1:0 32 0] [0 0] 0 0
r 1.000000000 _0_ RTR  --- 1 tcp 40 [0 0 0 0] ------- [0:0 1:0 32 0] [0 0] 0 0
s 1.000000000 _0_ RTR  --- 1 tcp 60 [0 0 0 0] ------- [0:0 1:0 32 1] [0 0] 0 0
s 1.000255000 _0_ MAC  --- 0 ARP 86 [0 ffffffff 0 806] ------- [REQUEST 0/0 0/1]
r 1.000943300 _1_ MAC  --- 0 ARP 28 [0 ffffffff 0 806] ------- [REQUEST 0/0 0/1]
s 1.001358300 _1_ MAC  --- 0 RTS 44 [52e 0 1 0] 
r 1.001710600 _0_ MAC  --- 0 RTS 44 [52e 0 1 0] 
s 1.001720600 _0_ MAC  --- 0 CTS 38 [3f4 1 0 0] 
r 1.002024900 _1_ MAC  --- 0 CTS 38 [3f4 1 0 0] 
s 1.002034900 _1_ MAC  --- 0 ARP 86 [13a 0 1 806] ------- [REPLY 1/1 0/0]
r 1.002723200 _0_ MAC  --- 0 ARP 28 [13a 0 1 806] ------- [REPLY 1/1 0/0]
s 1.002733200 _0_ MAC  --- 0 ACK 38 [0 1 0 0] 
r 1.003037500 _1_ MAC  --- 0 ACK 38 [0 1 0 0] 
s 1.003347200 _0_ MAC  --- 0 RTS 44 [62e 1 0 0] 
r 1.003699500 _1_ MAC  --- 0 RTS 44 [62e 1 0 0] 
s 1.003709500 _1_ MAC  --- 0 CTS 38 [4f4 0 0 0] 
r 1.004013800 _0_ MAC  --- 0 CTS 38 [4f4 0 0 0] 
s 1.004023800 _0_ MAC  --- 1 tcp 118 [13a 1 0 800] ------- [0:0 1:0 32 1] [0 0] 0 0
r 1.004968100 _1_ MAC  --- 1 tcp 60 [13a 1 0 800] ------- [0:0 1:0 32 1] [0 0] 1 0
s 1.004978100 _1_ MAC  --- 0 ACK 38 [0 0 0 0] 
r 1.004993100 _1_ AGT  --- 1 tcp 60 [13a 1 0 800] ------- [0:0 1:0 32 1] [0 0] 1 0
s 1.004993100 _1_ AGT  --- 2 ack 40 [0 0 0 0] ------- [1:0 0:0 32 0] [0 0] 0 0
r 1.004993100 _1_ RTR  --- 2 ack 40 [0 0 0 0] ------- [1:0 0:0 32 0] [0 0] 0 0
r 1.005282400 _0_ MAC  --- 0 ACK 38 [0 0 0 0] 
s 1.112189378 _0_ RTR  --- 3 message 32 [0 0 0 0] ------- [0:255 -1:255 32 0] 
s 1.112624378 _0_ MAC  --- 3 message 90 [0 ffffffff 0 800] ------- [0:255 -1:255 32 0] 
r 1.113344678 _1_ MAC  --- 3 message 32 [0 ffffffff 0 800] ------- [0:255 -1:255 32 0] 
r 1.113369678 _1_ RTR  --- 3 message 32 [0 ffffffff 0 800] ------- [0:255 -1:255 32 0] 
s 1.113369678 _1_ RTR  --- 2 ack 80 [0 0 0 0] ------- [1:0 0:0 32 0] [0 0] 0 0
s 1.113604678 _1_ MAC  --- 0 RTS 44 [6ce 0 1 0] 
r 1.113956978 _0_ MAC  --- 0 RTS 44 [6ce 0 1 0] 
s 1.113966978 _0_ MAC  --- 0 CTS 38 [594 1 0 0] 
r 1.114271278 _1_ MAC  --- 0 CTS 38 [594 1 0 0] 
s 1.114281278 _1_ MAC  --- 2 ack 138 [13a 0 1 800] ------- [1:0 0:0 32 0] [0 0] 0 0
r 1.115385578 _0_ MAC  --- 2 ack 80 [13a 0 1 800] ------- [1:0 0:0 32 0] [0 0] 1 0
s 1.115395578 _0_ MAC  --- 0 ACK 38 [0 1 0 0] 
r 1.115410578 _0_ AGT  --- 2 ack 80 [13a 0 1 800] ------- [1:0 0:0 32 0] [0 0] 1 0
s 1.115410578 _0_ AGT  --- 4 tcp 1040 [0 0 0 0] ------- [0:0 1:0 32 0] [1 0] 0 0
r 1.115410578 _0_ RTR  --- 4 tcp 1040 [0 0 0 0] ------- [0:0 1:0 32 0] [1 0] 0 0
s 1.115410578 _0_ RTR  --- 4 tcp 1060 [0 0 0 0] ------- [0:0 1:0 32 1] [1 0] 0 0
s 1.115410578 _0_ AGT  --- 5 tcp 1040 [0 0 0 0] ------- [0:0 1:0 32 0] [2 0] 0 0
r 1.115410578 _0_ RTR  --- 5 tcp 1040 [0 0 0 0] ------- [0:0 1:0 32 0] [2 0] 0 0
s 1.115410578 _0_ RTR  --- 5 tcp 1060 [0 0 0 0] ------- [0:0 1:0 32 1] [2 0] 0 0
r 1.115699878 _1_ MAC  --- 0 ACK 38 [0 1 0 0] 
s 1.115789578 _0_ MAC  --- 0 RTS 44 [256e 1 0 0] 
r 1.116141878 _1_ MAC  --- 0 RTS 44 [256e 1 0 0] 
s 1.116151878 _1_ MAC  --- 0 CTS 38 [2434 0 0 0] 
r 1.116456178 _0_ MAC  --- 0 CTS 38 [2434 0 0 0] 
s 1.116466178 _0_ MAC  --- 4 tcp 1118 [13a 1 0 800] ------- [0:0 1:0 32 1] [1 0] 0 0
r 1.125410478 _1_ MAC  --- 4 tcp 1060 [13a 1 0 800] ------- [0:0 1:0 32 1] [1 0] 1 0
s 1.125420478 _1_ MAC  --- 0 ACK 38 [0 0 0 0] 
r 1.125435478 _1_ AGT  --- 4 tcp 1060 [13a 1 0 800] ------- [0:0 1:0 32 1] [1 0] 1 0
s 1.125435478 _1_ AGT  --- 6 ack 40 [0 0 0 0] ------- [1:0 0:0 32 0] [1 0] 0 0
r 1.125435478 _1_ RTR  --- 6 ack 40 [0 0 0 0] ------- [1:0 0:0 32 0] [1 0] 0 0
s 1.125435478 _1_ RTR  --- 6 ack 60 [0 0 0 0] ------- [1:0 0:0 32 0] [1 0] 0 0
r 1.125724778 _0_ MAC  --- 0 ACK 38 [0 0 0 0] 
s 1.126114778 _0_ MAC  --- 0 RTS 44 [256e 1 0 0] 
r 1.126467078 _1_ MAC  --- 0 RTS 44 [256e 1 0 0] 
s 1.126477078 _1_ MAC  --- 0 CTS 38 [2434 0 0 0] 
r 1.126781378 _0_ MAC  --- 0 CTS 38 [2434 0 0 0] 
s 1.126791378 _0_ MAC  --- 5 tcp 1118 [13a 1 0 800] ------- [0:0 1:0 32 1] [2 0] 0 0
r 1.135735678 _1_ MAC  --- 5 tcp 1060 [13a 1 0 800] ------- [0:0 1:0 32 1] [2 0] 1 0
s 1.135745678 _1_ MAC  --- 0 ACK 38 [0 0 0 0] 
r 1.135760678 _1_ AGT  --- 5 tcp 1060 [13a 1 0 800] ------- [0:0 1:0 32 1] [2 0] 1 0
s 1.135760678 _1_ AGT  --- 7 ack 40 [0 0 0 0] ------- [1:0 0:0 32 0] [2 0] 0 0
r 1.135760678 _1_ RTR  --- 7 ack 40 [0 0 0 0] ------- [1:0 0:0 32 0] [2 0] 0 0
s 1.135760678 _1_ RTR  --- 7 ack 60 [0 0 0 0] ------- [1:0 0:0 32 0] [2 0] 0 0
r 1.136049978 _0_ MAC  --- 0 ACK 38 [0 0 0 0] 
s 1.136219678 _1_ MAC  --- 0 RTS 44 [62e 0 1 0] 
r 1.136571978 _0_ MAC  --- 0 RTS 44 [62e 0 1 0] 
s 1.136581978 _0_ MAC  --- 0 CTS 38 [4f4 1 0 0] 
r 1.136886278 _1_ MAC  --- 0 CTS 38 [4f4 1 0 0] 
s 1.136896278 _1_ MAC  --- 6 ack 118 [13a 0 1 800] ------- [1:0 0:0 32 0] [1 0] 0 0
r 1.137840578 _0_ MAC  --- 6 ack 60 [13a 0 1 800] ------- [1:0 0:0 32 0] [1 0] 1 0
s 1.137850578 _0_ MAC  --- 0 ACK 38 [0 1 0 0] 
r 1.137865578 _0_ AGT  --- 6 ack 60 [13a 0 1 800] ------- [1:0 0:0 32 0] [1 0] 1 0
s 1.137865578 _0_ AGT  --- 8 tcp 1040 [0 0 0 0] ------- [0:0 1:0 32 0] [3 0] 0 0
r 1.137865578 _0_ RTR  --- 8 tcp 1040 [0 0 0 0] ------- [0:0 1:0 32 0] [3 0] 0 0
s 1.137865578 _0_ RTR  --- 8 tcp 1060 [0 0 0 0] ------- [0:0 1:0 32 1] [3 0] 0 0
s 1.137865578 _0_ AGT  --- 9 tcp 1040 [0 0 0 0] ------- [0:0 1:0 32 0] [4 0] 0 0
r 1.137865578 _0_ RTR  --- 9 tcp 1040 [0 0 0 0] ------- [0:0 1:0 32 0] [4 0] 0 0
s 1.137865578 _0_ RTR  --- 9 tcp 1060 [0 0 0 0] ------- [0:0 1:0 32 1] [4 0] 0 0
r 1.138154878 _1_ MAC  --- 0 ACK 38 [0 1 0 0] 
s 1.138404878 _1_ MAC  --- 0 RTS 44 [62e 0 1 0] 
r 1.138757178 _0_ MAC  --- 0 RTS 44 [62e 0 1 0] 
s 1.138767178 _0_ MAC  --- 0 CTS 38 [4f4 1 0 0] 
r 1.139071478 _1_ MAC  --- 0 CTS 38 [4f4 1 0 0] 
s 1.139081478 _1_ MAC  --- 7 ack 118 [13a 0 1 800] ------- [1:0 0:0 32 0] [2 0] 0 0
r 1.140025778 _0_ MAC  --- 7 ack 60 [13a 0 1 800] ------- [1:0 0:0 32 0] [2 0] 1 0
s 1.140035778 _0_ MAC  --- 0 ACK 38 [0 1 0 0] 
r 1.140050778 _0_ AGT  --- 7 ack 60 [13a 0 1 800] ------- [1:0 0:0 32 0] [2 0] 1 0
s 1.140050778 _0_ AGT  --- 10 tcp 1040 [0 0 0 0] ------- [0:0 1:0 32 0] [5 0] 0 0
r 1.140050778 _0_ RTR  --- 10 tcp 1040 [0 0 0 0] ------- [0:0 1:0 32 0] [5 0] 0 0
s 1.140050778 _0_ RTR  --- 10 tcp 1060 [0 0 0 0] ------- [0:0 1:0 32 1] [5 0] 0 0
s 1.140050778 _0_ AGT  --- 11 tcp 1040 [0 0 0 0] ------- [0:0 1:0 32 0] [6 0] 0 0
r 1.140050778 _0_ RTR  --- 11 tcp 1040 [0 0 0 0] ------- [0:0 1:0 32 0] [6 0] 0 0
s 1.140050778 _0_ RTR  --- 11 tcp 1060 [0 0 0 0] ------- [0:0 1:0 32 1] [6 0] 0 0
r 1.140340078 _1_ MAC  --- 0 ACK 38 [0 1 0 0] 
s 1.140409778 _0_ MAC  --- 0 RTS 44 [256e 1 0 0] 
r 1.140762078 _1_ MAC  --- 0 RTS 44 [256e 1 0 0] 
s 1.140772078 _1_ MAC  --- 0 CTS 38 [2434 0 0 0] 
r 1.141076378 _0_ MAC  --- 0 CTS 38 [2434 0 0 0] 
s 1.141086378 _0_ MAC  --- 8 tcp 1118 [13a 1 0 800] ------- [0:0 1:0 32 1] [3 0] 0 0
r 1.150030678 _1_ MAC  --- 8 tcp 1060 [13a 1 0 800] ------- [0:0 1:0 32 1] [3 0] 1 0
s 1.150040678 _1_ MAC  --- 0 ACK 38 [0 0 0 0] 
r 1.150055678 _1_ AGT  --- 8 tcp 1060 [13a 1 0 800] ------- [0:0 1:0 32 1] [3 0] 1 0
s 1.150055678 _1_ AGT  --- 12 ack 40 [0 0 0 0] ------- [1:0 0:0 32 0] [3 0] 0 0
r 1.150055678 _1_ RTR  --- 12 ack 40 [0 0 0 0] ------- [1:0 0:0 32 0] [3 0] 0 0
s 1.150055678 _1_ RTR  --- 12 ack 60 [0 0 0 0] ------- [1:0 0:0 32 0] [3 0] 0 0
r 1.150344978 _0_ MAC  --- 0 ACK 38 [0 0 0 0] 
s 1.150414978 _0_ MAC  --- 0 RTS 44 [256e 1 0 0] 
r 1.150767278 _1_ MAC  --- 0 RTS 44 [256e 1 0 0] 
s 1.150777278 _1_ MAC  --- 0 CTS 38 [2434 0 0 0] 
r 1.151081578 _0_ MAC  --- 0 CTS 38 [2434 0 0 0] 
s 1.151091578 _0_ MAC  --- 9 tcp 1118 [13a 1 0 800] ------- [0:0 1:0 32 1] [4 0] 0 0
r 1.160035878 _1_ MAC  --- 9 tcp 1060 [13a 1 0 800] ------- [0:0 1:0 32 1] [4 0] 1 0
s 1.160045878 _1_ MAC  --- 0 ACK 38 [0 0 0 0] 
r 1.160060878 _1_ AGT  --- 9 tcp 1060 [13a 1 0 800] ------- [0:0 1:0 32 1] [4 0] 1 0
s 1.160060878 _1_ AGT  --- 13 ack 40 [0 0 0 0] ------- [1:0 0:0 32 0] [4 0] 0 0
r 1.160060878 _1_ RTR  --- 13 ack 40 [0 0 0 0] ------- [1:0 0:0 32 0] [4 0] 0 0
s 1.160060878 _1_ RTR  --- 13 ack 60 [0 0 0 0] ------- [1:0 0:0 32 0] [4 0] 0 0
r 1.160350178 _0_ MAC  --- 0 ACK 38 [0 0 0 0] 
s 1.160599878 _1_ MAC  --- 0 RTS 44 [62e 0 1 0] 
r 1.160952178 _0_ MAC  --- 0 RTS 44 [62e 0 1 0] 
s 1.160962178 _0_ MAC  --- 0 CTS 38 [4f4 1 0 0] 
r 1.161266478 _1_ MAC  --- 0 CTS 38 [4f4 1 0 0] 
s 1.161276478 _1_ MAC  --- 12 ack 118 [13a 0 1 800] ------- [1:0 0:0 32 0] [3 0] 0 0
r 1.162220778 _0_ MAC  --- 12 ack 60 [13a 0 1 800] ------- [1:0 0:0 32 0] [3 0] 1 0
s 1.162230778 _0_ MAC  --- 0 ACK 38 [0 1 0 0] 
r 1.162245778 _0_ AGT  --- 12 ack 60 [13a 0 1 800] ------- [1:0 0:0 32 0] [3 0] 1 0
s 1.162245778 _0_ AGT  --- 14 tcp 1040 [0 0 0 0] ------- [0:0 1:0 32 0] [7 0] 0 0
r 1.162245778 _0_ RTR  --- 14 tcp 1040 [0 0 0 0] ------- [0:0 1:0 32 0] [7 0] 0 0
s 1.162245778 _0_ RTR  --- 14 tcp 1060 [0 0 0 0] ------- [0:0 1:0 32 1] [7 0] 0 0
s 1.162245778 _0_ AGT  --- 15 tcp 1040 [0 0 0 0] ------- [0:0 1:0 32 0] [8 0] 0 0
r 1.162245778 _0_ RTR  --- 15 tcp 1040 [0 0 0 0] ------- [0:0 1:0 32 0] [8 0] 0 0
s 1.162245778 _0_ RTR  --- 15 tcp 1060 [0 0 0 0] ------- [0:0 1:0 32 1] [8 0] 0 0
r 1.162535078 _1_ MAC  --- 0 ACK 38 [0 1 0 0] 
s 1.162644778 _0_ MAC  --- 0 RTS 44 [256e 1 0 0] 
r 1.162997078 _1_ MAC  --- 0 RTS 44 [256e 1 0 0] 
s 1.163007078 _1_ MAC  --- 0 CTS 38 [2434 0 0 0] 
r 1.163311378 _0_ MAC  --- 0 CTS 38 [2434 0 0 0] 
s 1.163321378 _0_ MAC  --- 10 tcp 1118 [13a 1 0 800] ------- [0:0 1:0 32 1] [5 0] 0 0
r 1.172265678 _1_ MAC  --- 10 tcp 1060 [13a 1 0 800] ------- [0:0 1:0 32 1] [5 0] 1 0
s 1.172275678 _1_ MAC  --- 0 ACK 38 [0 0 0 0] 
r 1.172290678 _1_ AGT  --- 10 tcp 1060 [13a 1 0 800] ------- [0:0 1:0 32 1] [5 0] 1 0
s 1.172290678 _1_ AGT  --- 16 ack 40 [0 0 0 0] ------- [1:0 0:0 32 0] [5 0] 0 0
r 1.172290678 _1_ RTR  --- 16 ack 40 [0 0 0 0] ------- [1:0 0:0 32 0] [5 0] 0 0
s 1.172290678 _1_ RTR  --- 16 ack 60 [0 0 0 0] ------- [1:0 0:0 32 0] [5 0] 0 0
r 1.172579978 _0_ MAC  --- 0 ACK 38 [0 0 0 0] 
s 1.172809978 _0_ MAC  --- 0 RTS 44 [256e 1 0 0] 
r 1.173162278 _1_ MAC  --- 0 RTS 44 [256e 1 0 0] 
s 1.173172278 _1_ MAC  --- 0 CTS 38 [2434 0 0 0] 
r 1.173476578 _0_ MAC  --- 0 CTS 38 [2434 0 0 0] 
s 1.173486578 _0_ MAC  --- 11 tcp 1118 [13a 1 0 800] ------- [0:0 1:0 32 1] [6 0] 0 0
r 1.182430878 _1_ MAC  --- 11 tcp 1060 [13a 1 0 800] ------- [0:0 1:0 32 1] [6 0] 1 0
s 1.182440878 _1_ MAC  --- 0 ACK 38 [0 0 0 0] 
r 1.182455878 _1_ AGT  --- 11 tcp 1060 [13a 1 0 800] ------- [0:0 1:0 32 1] [6 0] 1 0
s 1.182455878 _1_ AGT  --- 17 ack 40 [0 0 0 0] ------- [1:0 0:0 32 0] [6 0] 0 0
r 1.182455878 _1_ RTR  --- 17 ack 40 [0 0 0 0] ------- [1:0 0:0 32 0] [6 0] 0 0
s 1.182455878 _1_ RTR  --- 17 ack 60 [0 0 0 0] ------- [1:0 0:0 32 0] [6 0] 0 0
r 1.182745178 _0_ MAC  --- 0 ACK 38 [0 0 0 0] 
s 1.183014878 _1_ MAC  --- 0 RTS 44 [62e 0 1 0] 
r 1.183367178 _0_ MAC  --- 0 RTS 44 [62e 0 1 0] 
s 1.183377178 _0_ MAC  --- 0 CTS 38 [4f4 1 0 0] 
r 1.183681478 _1_ MAC  --- 0 CTS 38 [4f4 1 0 0] 
s 1.183691478 _1_ MAC  --- 13 ack 118 [13a 0 1 800] ------- [1:0 0:0 32 0] [4 0] 0 0
r 1.184635778 _0_ MAC  --- 13 ack 60 [13a 0 1 800] ------- [1:0 0:0 32 0] [4 0] 1 0
s 1.184645778 _0_ MAC  --- 0 ACK 38 [0 1 0 0] 
r 1.184660778 _0_ AGT  --- 13 ack 60 [13a 0 1 800] ------- [1:0 0:0 32 0] [4 0] 1 0
s 1.184660778 _0_ AGT  --- 18 tcp 1040 [0 0 0 0] ------- [0:0 1:0 32 0] [9 0] 0 0
r 1.184660778 _0_ RTR  --- 18 tcp 1040 [0 0 0 0] ------- [0:0 1:0 32 0] [9 0] 0 0
s 1.184660778 _0_ RTR  --- 18 tcp 1060 [0 0 0 0] ------- [0:0 1:0 32 1] [9 0] 0 0
s 1.184660778 _0_ AGT  --- 19 tcp 1040 [0 0 0 0] ------- [0:0 1:0 32 0] [10 0] 0 0
r 1.184660778 _0_ RTR  --- 19 tcp 1040 [0 0 0 0] ------- [0:0 1:0 32 0] [10 0] 0 0
s 1.184660778 _0_ RTR  --- 19 tcp 1060 [0 0 0 0] ------- [0:0 1:0 32 1] [10 0] 0 0
r 1.184950078 _1_ MAC  --- 0 ACK 38 [0 1 0 0] 
s 1.185379778 _0_ MAC  --- 0 RTS 44 [256e 1 0 0] 
r 1.185732078 _1_ MAC  --- 0 RTS 44 [256e 1 0 0] 
s 1.185742078 _1_ MAC  --- 0 CTS 38 [2434 0 0 0] 
r 1.186046378 _0_ MAC  --- 0 CTS 38 [2434 0 0 0] 
s 1.186056378 _0_ MAC  --- 14 tcp 1118 [13a 1 0 800] ------- [0:0 1:0 32 1] [7 0] 0 0
r 1.195000678 _1_ MAC  --- 14 tcp 1060 [13a 1 0 800] ------- [0:0 1:0 32 1] [7 0] 1 0
s 1.195010678 _1_ MAC  --- 0 ACK 38 [0 0 0 0] 
r 1.195025678 _1_ AGT  --- 14 tcp 1060 [13a 1 0 800] ------- [0:0 1:0 32 1] [7 0] 1 0
s 1.195025678 _1_ AGT  --- 20 ack 40 [0 0 0 0] ------- [1:0 0:0 32 0] [7 0] 0 0
r 1.195025678 _1_ RTR  --- 20 ack 40 [0 0 0 0] ------- [1:0 0:0 32 0] [7 0] 0 0
s 1.195025678 _1_ RTR  --- 20 ack 60 [0 0 0 0] ------- [1:0 0:0 32 0] [7 0] 0 0
r 1.195314978 _0_ MAC  --- 0 ACK 38 [0 0 0 0] 
s 1.195404678 _1_ MAC  --- 0 RTS 44 [62e 0 1 0] 
r 1.195756978 _0_ MAC  --- 0 RTS 44 [62e 0 1 0] 
s 1.195766978 _0_ MAC  --- 0 CTS 38 [4f4 1 0 0] 
r 1.196071278 _1_ MAC  --- 0 CTS 38 [4f4 1 0 0] 
s 1.196081278 _1_ MAC  --- 16 ack 118 [13a 0 1 800] ------- [1:0 0:0 32 0] [5 0] 0 0
r 1.197025578 _0_ MAC  --- 16 ack 60 [13a 0 1 800] ------- [1:0 0:0 32 0] [5 0] 1 0
s 1.197035578 _0_ MAC  --- 0 ACK 38 [0 1 0 0] 
r 1.197050578 _0_ AGT  --- 16 ack 60 [13a 0 1 800] ------- [1:0 0:0 32 0] [5 0] 1 0
s 1.197050578 _0_ AGT  --- 21 tcp 1040 [0 0 0 0] ------- [0:0 1:0 32 0] [11 0] 0 0
r 1.197050578 _0_ RTR  --- 21 tcp 1040 [0 0 0 0] ------- [0:0 1:0 32 0] [11 0] 0 0
s 1.197050578 _0_ RTR  --- 21 tcp 1060 [0 0 0 0] ------- [0:0 1:0 32 1] [11 0] 0 0
s 1.197050578 _0_ AGT  --- 22 tcp 1040 [0 0 0 0] ------- [0:0 1:0 32 0] [12 0] 0 0
r 1.197050578 _0_ RTR  --- 22 tcp 1040 [0 0 0 0] ------- [0:0 1:0 32 0] [12 0] 0 0
s 1.197050578 _0_ RTR  --- 22 tcp 1060 [0 0 0 0] ------- [0:0 1:0 32 1] [12 0] 0 0
r 1.197339878 _1_ MAC  --- 0 ACK 38 [0 1 0 0] 
s 1.197749878 _1_ MAC  --- 0 RTS 44 [62e 0 1 0] 
r 1.198102178 _0_ MAC  --- 0 RTS 44 [62e 0 1 0] 
s 1.198112178 _0_ MAC  --- 0 CTS 38 [4f4 1 0 0] 
r 1.198416478 _1_ MAC  --- 0 CTS 38 [4f4 1 0 0] 
s 1.198426478 _1_ MAC  --- 17 ack 118 [13a 0 1 800] ------- [1:0 0:0 32 0] [6 0] 0 0
r 1.199370778 _0_ MAC  --- 17 ack 60 [13a 0 1 800] ------- [1:0 0:0 32 0] [6 0] 1 0
s 1.199380778 _0_ MAC  --- 0 ACK 38 [0 1 0 0] 
r 1.199395778 _0_ AGT  --- 17 ack 60 [13a 0 1 800] ------- [1:0 0:0 32 0] [6 0] 1 0
s 1.199395778 _0_ AGT  --- 23 tcp 1040 [0 0 0 0] ------- [0:0 1:0 32 0] [13 0] 0 0
r 1.199395778 _0_ RTR  --- 23 tcp 1040 [0 0 0 0] ------- [0:0 1:0 32 0] [13 0] 0 0
s 1.199395778 _0_ RTR  --- 23 tcp 1060 [0 0 0 0] ------- [0:0 1:0 32 1] [13 0] 0 0
s 1.199395778 _0_ AGT  --- 24 tcp 1040 [0 0 0 0] ------- [0:0 1:0 32 0] [14 0] 0 0
r 1.199395778 _0_ RTR  --- 24 tcp 1040 [0 0 0 0] ------- [0:0 1:0 32 0] [14 0] 0 0
s 1.199395778 _0_ RTR  --- 24 tcp 1060 [0 0 0 0] ------- [0:0 1:0 32 1] [14 0] 0 0
r 1.199685078 _1_ MAC  --- 0 ACK 38 [0 1 0 0] 
s 1.199775078 _1_ MAC  --- 0 RTS 44 [62e 0 1 0] 
r 1.200127378 _0_ MAC  --- 0 RTS 44 [62e 0 1 0] 
s 1.200137378 _0_ MAC  --- 0 CTS 38 [4f4 1 0 0] 
r 1.200441678 _1_ MAC  --- 0 CTS 38 [4f4 1 0 0] 
s 1.200451678 _1_ MAC  --- 20 ack 118 [13a 0 1 800] ------- [1:0 0:0 32 0] [7 0] 0 0
r 1.201395978 _0_ MAC  --- 20 ack 60 [13a 0 1 800] ------- [1:0 0:0 32 0] [7 0] 1 0
s 1.201405978 _0_ MAC  --- 0 ACK 38 [0 1 0 0] 
r 1.201420978 _0_ AGT  --- 20 ack 60 [13a 0 1 800] ------- [1:0 0:0 32 0] [7 0] 1 0
s 1.201420978 _0_ AGT  --- 25 tcp 1040 [0 0 0 0] ------- [0:0 1:0 32 0] [15 0] 0 0
r 1.201420978 _0_ RTR  --- 25 tcp 1040 [0 0 0 0] ------- [0:0 1:0 32 0] [15 0] 0 0
s 1.201420978 _0_ RTR  --- 25 tcp 1060 [0 0 0 0] ------- [0:0 1:0 32 1] [15 0] 0 0
s 1.201420978 _0_ AGT  --- 26 tcp 1040 [0 0 0 0] ------- [0:0 1:0 32 0] [16 0] 0 0
r 1.201420978 _0_ RTR  --- 26 tcp 1040 [0 0 0 0] ------- [0:0 1:0 32 0] [16 0] 0 0
s 1.201420978 _0_ RTR  --- 26 tcp 1060 [0 0 0 0] ------- [0:0 1:0 32 1] [16 0] 0 0
r 1.201710278 _1_ MAC  --- 0 ACK 38 [0 1 0 0] 
s 1.201879978 _0_ MAC  --- 0 RTS 44 [256e 1 0 0] 
r 1.202232278 _1_ MAC  --- 0 RTS 44 [256e 1 0 0] 
s 1.202242278 _1_ MAC  --- 0 CTS 38 [2434 0 0 0] 
r 1.202546578 _0_ MAC  --- 0 CTS 38 [2434 0 0 0] 
s 1.202556578 _0_ MAC  --- 15 tcp 1118 [13a 1 0 800] ------- [0:0 1:0 32 1] [8 0] 0 0
r 1.211500878 _1_ MAC  --- 15 tcp 1060 [13a 1 0 800] ------- [0:0 1:0 32 1] [8 0] 1 0
s 1.211510878 _1_ MAC  --- 0 ACK 38 [0 0 0 0] 
r 1.211525878 _1_ AGT  --- 15 tcp 1060 [13a 1 0 800] ------- [0:0 1:0 32 1] [8 0] 1 0
s 1.211525878 _1_ AGT  --- 27 ack 40 [0 0 0 0] ------- [1:0 0:0 32 0] [8 0] 0 0
r 1.211525878 _1_ RTR  --- 27 ack 40 [0 0 0 0] ------- [1:0 0:0 32 0] [8 0] 0 0
s 1.211525878 _1_ RTR  --- 27 ack 60 [0 0 0 0] ------- [1:0 0:0 32 0] [8 0] 0 0
r 1.211815178 _0_ MAC  --- 0 ACK 38 [0 0 0 0] 
s 1.212064878 _1_ MAC  --- 0 RTS 44 [62e 0 1 0] 
r 1.212417178 _0_ MAC  --- 0 RTS 44 [62e 0 1 0] 
s 1.212427178 _0_ MAC  --- 0 CTS 38 [4f4 1 0 0] 
r 1.212731478 _1_ MAC  --- 0 CTS 38 [4f4 1 0 0] 
s 1.212741478 _1_ MAC  --- 27 ack 118 [13a 0 1 800] ------- [1:0 0:0 32 0] [8 0] 0 0
r 1.213685778 _0_ MAC  --- 27 ack 60 [13a 0 1 800] ------- [1:0 0:0 32 0] [8 0] 1 0
s 1.213695778 _0_ MAC  --- 0 ACK 38 [0 1 0 0] 
r 1.213710778 _0_ AGT  --- 27 ack 60 [13a 0 1 800] ------- [1:0 0:0 32 0] [8 0] 1 0
s 1.213710778 _0_ AGT  --- 28 tcp 1040 [0 0 0 0] ------- [0:0 1:0 32 0] [17 0] 0 0
r 1.213710778 _0_ RTR  --- 28 tcp 1040 [0 0 0 0] ------- [0:0 1:0 32 0] [17 0] 0 0
s 1.213710778 _0_ RTR  --- 28 tcp 1060 [0 0 0 0] ------- [0:0 1:0 32 1] [17 0] 0 0
s 1.213710778 _0_ AGT  --- 29 tcp 1040 [0 0 0 0] ------- [0:0 1:0 32 0] [18 0] 0 0
r 1.213710778 _0_ RTR  --- 29 tcp 1040 [0 0 0 0] ------- [0:0 1:0 32 0] [18 0] 0 0
s 1.213710778 _0_ RTR  --- 29 tcp 1060 [0 0 0 0] ------- [0:0 1:0 32 1] [18 0] 0 0
r 1.214000078 _1_ MAC  --- 0 ACK 38 [0 1 0 0] 
s 1.214229778 _0_ MAC  --- 0 RTS 44 [256e 1 0 0] 
r 1.214582078 _1_ MAC  --- 0 RTS 44 [256e 1 0 0] 
s 1.214592078 _1_ MAC  --- 0 CTS 38 [2434 0 0 0] 
r 1.214896378 _0_ MAC  --- 0 CTS 38 [2434 0 0 0] 
s 1.214906378 _0_ MAC  --- 18 tcp 1118 [13a 1 0 800] ------- [0:0 1:0 32 1] [9 0] 0 0
r 1.223850678 _1_ MAC  --- 18 tcp 1060 [13a 1 0 800] ------- [0:0 1:0 32 1] [9 0] 1 0
s 1.223860678 _1_ MAC  --- 0 ACK 38 [0 0 0 0] 
r 1.223875678 _1_ AGT  --- 18 tcp 1060 [13a 1 0 800] ------- [0:0 1:0 32 1] [9 0] 1 0
s 1.223875678 _1_ AGT  --- 30 ack 40 [0 0 0 0] ------- [1:0 0:0 32 0] [9 0] 0 0
r 1.223875678 _1_ RTR  --- 30 ack 40 [0 0 0 0] ------- [1:0 0:0 32 0] [9 0] 0 0
s 1.223875678 _1_ RTR  --- 30 ack 60 [0 0 0 0] ------- [1:0 0:0 32 0] [9 0] 0 0
r 1.224164978 _0_ MAC  --- 0 ACK 38 [0 0 0 0] 
s 1.224294678 _1_ MAC  --- 0 RTS 44 [62e 0 1 0] 
r 1.224646978 _0_ MAC  --- 0 RTS 44 [62e 0 1 0] 
s 1.224656978 _0_ MAC  --- 0 CTS 38 [4f4 1 0 0] 
r 1.224961278 _1_ MAC  --- 0 CTS 38 [4f4 1 0 0] 
s 1.224971278 _1_ MAC  --- 30 ack 118 [13a 0 1 800] ------- [1:0 0:0 32 0] [9 0] 0 0
r 1.225915578 _0_ MAC  --- 30 ack 60 [13a 0 1 800] ------- [1:0 0:0 32 0] [9 0] 1 0
s 1.225925578 _0_ MAC  --- 0 ACK 38 [0 1 0 0] 
r 1.225940578 _0_ AGT  --- 30 ack 60 [13a 0 1 800] ------- [1:0 0:0 32 0] [9 0] 1 0
s 1.225940578 _0_ AGT  --- 31 tcp 1040 [0 0 0 0] ------- [0:0 1:0 32 0] [19 0] 0 0
r 1.225940578 _0_ RTR  --- 31 tcp 1040 [0 0 0 0] ------- [0:0 1:0 32 0] [19 0] 0 0
s 1.225940578 _0_ RTR  --- 31 tcp 1060 [0 0 0 0] ------- [0:0 1:0 32 1] [19 0] 0 0
s 1.225940578 _0_ AGT  --- 32 tcp 1040 [0 0 0 0] ------- [0:0 1:0 32 0] [20 0] 0 0
r 1.225940578 _0_ RTR  --- 32 tcp 1040 [0 0 0 0] ------- [0:0 1:0 32 0] [20 0] 0 0
s 1.225940578 _0_ RTR  --- 32 tcp 1060 [0 0 0 0] ------- [0:0 1:0 32 1] [20 0] 0 0
r 1.226229878 _1_ MAC  --- 0 ACK 38 [0 1 0 0] 
s 1.226499578 _0_ MAC  --- 0 RTS 44 [256e 1 0 0] 
r 1.226851878 _1_ MAC  --- 0 RTS 44 [256e 1 0 0] 
s 1.226861878 _1_ MAC  --- 0 CTS 38 [2434 0 0 0] 
r 1.227166178 _0_ MAC  --- 0 CTS 38 [2434 0 0 0] 
s 1.227176178 _0_ MAC  --- 19 tcp 1118 [13a 1 0 800] ------- [0:0 1:0 32 1] [10 0] 0 0
r 1.236120478 _1_ MAC  --- 19 tcp 1060 [13a 1 0 800] ------- [0:0 1:0 32 1] [10 0] 1 0
s 1.236130478 _1_ MAC  --- 0 ACK 38 [0 0 0 0] 
r 1.236145478 _1_ AGT  --- 19 tcp 1060 [13a 1 0 800] ------- [0:0 1:0 32 1] [10 0] 1 0
s 1.236145478 _1_ AGT  --- 33 ack 40 [0 0 0 0] ------- [1:0 0:0 32 0] [10 0] 0 0
r 1.236145478 _1_ RTR  --- 33 ack 40 [0 0 0 0] ------- [1:0 0:0 32 0] [10 0] 0 0
s 1.236145478 _1_ RTR  --- 33 ack 60 [0 0 0 0] ------- [1:0 0:0 32 0] [10 0] 0 0
r 1.236434778 _0_ MAC  --- 0 ACK 38 [0 0 0 0] 
s 1.236584478 _1_ MAC  --- 0 RTS 44 [62e 0 1 0] 
r 1.236936778 _0_ MAC  --- 0 RTS 44 [62e 0 1 0] 
s 1.236946778 _0_ MAC  --- 0 CTS 38 [4f4 1 0 0] 
r 1.237251078 _1_ MAC  --- 0 CTS 38 [4f4 1 0 0] 
s 1.237261078 _1_ MAC  --- 33 ack 118 [13a 0 1 800] ------- [1:0 0:0 32 0] [10 0] 0 0
r 1.238205378 _0_ MAC  --- 33 ack 60 [13a 0 1 800] ------- [1:0 0:0 32 0] [10 0] 1 0
s 1.238215378 _0_ MAC  --- 0 ACK 38 [0 1 0 0] 
r 1.238230378 _0_ AGT  --- 33 ack 60 [13a 0 1 800] ------- [1:0 0:0 32 0] [10 0] 1 0
s 1.238230378 _0_ AGT  --- 34 tcp 1040 [0 0 0 0] ------- [0:0 1:0 32 0] [21 0] 0 0
r 1.238230378 _0_ RTR  --- 34 tcp 1040 [0 0 0 0] ------- [0:0 1:0 32 0] [21 0] 0 0
s 1.238230378 _0_ RTR  --- 34 tcp 1060 [0 0 0 0] ------- [0:0 1:0 32 1] [21 0] 0 0
s 1.238230378 _0_ AGT  --- 35 tcp 1040 [0 0 0 0] ------- [0:0 1:0 32 0] [22 0] 0 0
r 1.238230378 _0_ RTR  --- 35 tcp 1040 [0 0 0 0] ------- [0:0 1:0 32 0] [22 0] 0 0
s 1.238230378 _0_ RTR  --- 35 tcp 1060 [0 0 0 0] ------- [0:0 1:0 32 1] [22 0] 0 0
r 1.238519678 _1_ MAC  --- 0 ACK 38 [0 1 0 0] 
s 1.239009378 _0_ MAC  --- 0 RTS 44 [256e 1 0 0] 
r 1.239361678 _1_ MAC  --- 0 RTS 44 [256e 1 0 0] 
s 1.239371678 _1_ MAC  --- 0 CTS 38 [2434 0 0 0] 
r 1.239675978 _0_ MAC  --- 0 CTS 38 [2434 0 0 0] 
s 1.239685978 _0_ MAC  --- 21 tcp 1118 [13a 1 0 800] ------- [0:0 1:0 32 1] [11 0] 0 0
r 1.248630278 _1_ MAC  --- 21 tcp 1060 [13a 1 0 800] ------- [0:0 1:0 32 1] [11 0] 1 0
s 1.248640278 _1_ MAC  --- 0 ACK 38 [0 0 0 0] 
r 1.248655278 _1_ AGT  --- 21 tcp 1060 [13a 1 0 800] ------- [0:0 1:0 32 1] [11 0] 1 0
s 1.248655278 _1_ AGT  --- 36 ack 40 [0 0 0 0] ------- [1:0 0:0 32 0] [11 0] 0 0
r 1.248655278 _1_ RTR  --- 36 ack 40 [0 0 0 0] ------- [1:0 0:0 32 0] [11 0] 0 0
s 1.248655278 _1_ RTR  --- 36 ack 60 [0 0 0 0] ------- [1:0 0:0 32 0] [11 0] 0 0
r 1.248944578 _0_ MAC  --- 0 ACK 38 [0 0 0 0] 
s 1.249194278 _1_ MAC  --- 0 RTS 44 [62e 0 1 0] 
r 1.249546578 _0_ MAC  --- 0 RTS 44 [62e 0 1 0] 
s 1.249556578 _0_ MAC  --- 0 CTS 38 [4f4 1 0 0] 
r 1.249860878 _1_ MAC  --- 0 CTS 38 [4f4 1 0 0] 
s 1.249870878 _1_ MAC  --- 36 ack 118 [13a 0 1 800] ------- [1:0 0:0 32 0] [11 0] 0 0
r 1.250815178 _0_ MAC  --- 36 ack 60 [13a 0 1 800] ------- [1:0 0:0 32 0] [11 0] 1 0
s 1.250825178 _0_ MAC  --- 0 ACK 38 [0 1 0 0] 
r 1.250840178 _0_ AGT  --- 36 ack 60 [13a 0 1 800] ------- [1:0 0:0 32 0] [11 0] 1 0
s 1.250840178 _0_ AGT  --- 37 tcp 1040 [0 0 0 0] ------- [0:0 1:0 32 0] [23 0] 0 0
r 1.250840178 _0_ RTR  --- 37 tcp 1040 [0 0 0 0] ------- [0:0 1:0 32 0] [23 0] 0 0
s 1.250840178 _0_ RTR  --- 37 tcp 1060 [0 0 0 0] ------- [0:0 1:0 32 1] [23 0] 0 0
s 1.250840178 _0_ AGT  --- 38 tcp 1040 [0 0 0 0] ------- [0:0 1:0 32 0] [24 0] 0 0
r 1.250840178 _0_ RTR  --- 38 tcp 1040 [0 0 0 0] ------- [0:0 1:0 32 0] [24 0] 0 0
s 1.250840178 _0_ RTR  --- 38 tcp 1060 [0 0 0 0] ------- [0:0 1:0 32 1] [24 0] 0 0
r 1.251129478 _1_ MAC  --- 0 ACK 38 [0 1 0 0] 
s 1.251579178 _0_ MAC  --- 0 RTS 44 [256e 1 0 0] 
r 1.251931478 _1_ MAC  --- 0 RTS 44 [256e 1 0 0] 
s 1.251941478 _1_ MAC  --- 0 CTS 38 [2434 0 0 0] 
r 1.252245778 _0_ MAC  --- 0 CTS 38 [2434 0 0 0] 
s 1.252255778 _0_ MAC  --- 22 tcp 1118 [13a 1 0 800] ------- [0:0 1:0 32 1] [12 0] 0 0
r 1.261200078 _1_ MAC  --- 22 tcp 1060 [13a 1 0 800] ------- [0:0 1:0 32 1] [12 0] 1 0
s 1.261210078 _1_ MAC  --- 0 ACK 38 [0 0 0 0] 
r 1.261225078 _1_ AGT  --- 22 tcp 1060 [13a 1 0 800] ------- [0:0 1:0 32 1] [12 0] 1 0
s 1.261225078 _1_ AGT  --- 39 ack 40 [0 0 0 0] ------- [1:0 0:0 32 0] [12 0] 0 0
r 1.261225078 _1_ RTR  --- 39 ack 40 [0 0 0 0] ------- [1:0 0:0 32 0] [12 0] 0 0
s 1.261225078 _1_ RTR  --- 39 ack 60 [0 0 0 0] ------- [1:0 0:0 32 0] [12 0] 0 0
r 1.261514378 _0_ MAC  --- 0 ACK 38 [0 0 0 0] 
s 1.261684078 _1_ MAC  --- 0 RTS 44 [62e 0 1 0] 
r 1.262036378 _0_ MAC  --- 0 RTS 44 [62e 0 1 0] 
s 1.262046378 _0_ MAC  --- 0 CTS 38 [4f4 1 0 0] 
r 1.262350678 _1_ MAC  --- 0 CTS 38 [4f4 1 0 0] 
s 1.262360678 _1_ MAC  --- 39 ack 118 [13a 0 1 800] ------- [1:0 0:0 32 0] [12 0] 0 0
r 1.263304978 _0_ MAC  --- 39 ack 60 [13a 0 1 800] ------- [1:0 0:0 32 0] [12 0] 1 0
s 1.263314978 _0_ MAC  --- 0 ACK 38 [0 1 0 0] 
r 1.263329978 _0_ AGT  --- 39 ack 60 [13a 0 1 800] ------- [1:0 0:0 32 0] [12 0] 1 0
s 1.263329978 _0_ AGT  --- 40 tcp 1040 [0 0 0 0] ------- [0:0 1:0 32 0] [25 0] 0 0
r 1.263329978 _0_ RTR  --- 40 tcp 1040 [0 0 0 0] ------- [0:0 1:0 32 0] [25 0] 0 0
s 1.263329978 _0_ RTR  --- 40 tcp 1060 [0 0 0 0] ------- [0:0 1:0 32 1] [25 0] 0 0
s 1.263329978 _0_ AGT  --- 41 tcp 1040 [0 0 0 0] ------- [0:0 1:0 32 0] [26 0] 0 0
r 1.263329978 _0_ RTR  --- 41 tcp 1040 [0 0 0 0] ------- [0:0 1:0 32 0] [26 0] 0 0
s 1.263329978 _0_ RTR  --- 41 tcp 1060 [0 0 0 0] ------- [0:0 1:0 32 1] [26 0] 0 0
r 1.263619278 _1_ MAC  --- 0 ACK 38 [0 1 0 0] 
s 1.263908978 _0_ MAC  --- 0 RTS 44 [256e 1 0 0] 
r 1.264261278 _1_ MAC  --- 0 RTS 44 [256e 1 0 0] 
s 1.264271278 _1_ MAC  --- 0 CTS 38 [2434 0 0 0] 
r 1.264575578 _0_ MAC  --- 0 CTS 38 [2434 0 0 0] 
s 1.264585578 _0_ MAC  --- 23 tcp 1118 [13a 1 0 800] ------- [0:0 1:0 32 1] [13 0] 0 0
r 1.273529878 _1_ MAC  --- 23 tcp 1060 [13a 1 0 800] ------- [0:0 1:0 32 1] [13 0] 1 0
s 1.273539878 _1_ MAC  --- 0 ACK 38 [0 0 0 0] 
r 1.273554878 _1_ AGT  --- 23 tcp 1060 [13a 1 0 800] ------- [0:0 1:0 32 1] [13 0] 1 0
s 1.273554878 _1_ AGT  --- 42 ack 40 [0 0 0 0] ------- [1:0 0:0 32 0] [13 0] 0 0
r 1.273554878 _1_ RTR  --- 42 ack 40 [0 0 0 0] ------- [1:0 0:0 32 0] [13 0] 0 0
s 1.273554878 _1_ RTR  --- 42 ack 60 [0 0 0 0] ------- [1:0 0:0 32 0] [13 0] 0 0
r 1.273844178 _0_ MAC  --- 0 ACK 38 [0 0 0 0] 
s 1.274173878 _1_ MAC  --- 0 RTS 44 [62e 0 1 0] 
s 1.274174178 _0_ MAC  --- 0 RTS 44 [256e 1 0 0] 
s 1.275420178 _0_ MAC  --- 0 RTS 44 [256e 1 0 0] 
r 1.275772478 _1_ MAC  --- 0 RTS 44 [256e 1 0 0] 
s 1.275782478 _1_ MAC  --- 0 CTS 38 [2434 0 0 0] 
r 1.276086778 _0_ MAC  --- 0 CTS 38 [2434 0 0 0] 
s 1.276096778 _0_ MAC  --- 24 tcp 1118 [13a 1 0 800] ------- [0:0 1:0 32 1] [14 0] 0 0
r 1.285041078 _1_ MAC  --- 24 tcp 1060 [13a 1 0 800] ------- [0:0 1:0 32 1] [14 0] 1 0
s 1.285051078 _1_ MAC  --- 0 ACK 38 [0 0 0 0] 
r 1.285066078 _1_ AGT  --- 24 tcp 1060 [13a 1 0 800] ------- [0:0 1:0 32 1] [14 0] 1 0
s 1.285066078 _1_ AGT  --- 43 ack 40 [0 0 0 0] ------- [1:0 0:0 32 0] [14 0] 0 0
r 1.285066078 _1_ RTR  --- 43 ack 40 [0 0 0 0] ------- [1:0 0:0 32 0] [14 0] 0 0
s 1.285066078 _1_ RTR  --- 43 ack 60 [0 0 0 0] ------- [1:0 0:0 32 0] [14 0] 0 0
r 1.285355378 _0_ MAC  --- 0 ACK 38 [0 0 0 0] 
s 1.285885078 _1_ MAC  --- 0 RTS 44 [62e 0 1 0] 
s 1.285885378 _0_ MAC  --- 0 RTS 44 [256e 1 0 0] 
s 1.286691678 _1_ MAC  --- 0 RTS 44 [62e 0 1 0] 
r 1.287043978 _0_ MAC  --- 0 RTS 44 [62e 0 1 0] 
s 1.287053978 _0_ MAC  --- 0 CTS 38 [4f4 1 0 0] 
r 1.287358278 _1_ MAC  --- 0 CTS 38 [4f4 1 0 0] 
s 1.287368278 _1_ MAC  --- 42 ack 118 [13a 0 1 800] ------- [1:0 0:0 32 0] [13 0] 0 0
r 1.288312578 _0_ MAC  --- 42 ack 60 [13a 0 1 800] ------- [1:0 0:0 32 0] [13 0] 1 0
s 1.288322578 _0_ MAC  --- 0 ACK 38 [0 1 0 0] 
r 1.288337578 _0_ AGT  --- 42 ack 60 [13a 0 1 800] ------- [1:0 0:0 32 0] [13 0] 1 0
s 1.288337578 _0_ AGT  --- 44 tcp 1040 [0 0 0 0] ------- [0:0 1:0 32 0] [27 0] 0 0
r 1.288337578 _0_ RTR  --- 44 tcp 1040 [0 0 0 0] ------- [0:0 1:0 32 0] [27 0] 0 0
s 1.288337578 _0_ RTR  --- 44 tcp 1060 [0 0 0 0] ------- [0:0 1:0 32 1] [27 0] 0 0
s 1.288337578 _0_ AGT  --- 45 tcp 1040 [0 0 0 0] ------- [0:0 1:0 32 0] [28 0] 0 0
r 1.288337578 _0_ RTR  --- 45 tcp 1040 [0 0 0 0] ------- [0:0 1:0 32 0] [28 0] 0 0
s 1.288337578 _0_ RTR  --- 45 tcp 1060 [0 0 0 0] ------- [0:0 1:0 32 1] [28 0] 0 0
r 1.288626878 _1_ MAC  --- 0 ACK 38 [0 1 0 0] 
s 1.288996878 _1_ MAC  --- 0 RTS 44 [62e 0 1 0] 
r 1.289349178 _0_ MAC  --- 0 RTS 44 [62e 0 1 0] 
s 1.289359178 _0_ MAC  --- 0 CTS 38 [4f4 1 0 0] 
r 1.289663478 _1_ MAC  --- 0 CTS 38 [4f4 1 0 0] 
s 1.289673478 _1_ MAC  --- 43 ack 118 [13a 0 1 800] ------- [1:0 0:0 32 0] [14 0] 0 0
r 1.290617778 _0_ MAC  --- 43 ack 60 [13a 0 1 800] ------- [1:0 0:0 32 0] [14 0] 1 0
s 1.290627778 _0_ MAC  --- 0 ACK 38 [0 1 0 0] 
r 1.290642778 _0_ AGT  --- 43 ack 60 [13a 0 1 800] ------- [1:0 0:0 32 0] [14 0] 1 0
s 1.290642778 _0_ AGT  --- 46 tcp 1040 [0 0 0 0] ------- [0:0 1:0 32 0] [29 0] 0 0
r 1.290642778 _0_ RTR  --- 46 tcp 1040 [0 0 0 0] ------- [0:0 1:0 32 0] [29 0] 0 0
s 1.290642778 _0_ RTR  --- 46 tcp 1060 [0 0 0 0] ------- [0:0 1:0 32 1] [29 0] 0 0
s 1.290642778 _0_ AGT  --- 47 tcp 1040 [0 0 0 0] ------- [0:0 1:0 32 0] [30 0] 0 0
r 1.290642778 _0_ RTR  --- 47 tcp 1040 [0 0 0 0] ------- [0:0 1:0 32 0] [30 0] 0 0
s 1.290642778 _0_ RTR  --- 47 tcp 1060 [0 0 0 0] ------- [0:0 1:0 32 1] [30 0] 0 0
r 1.290932078 _1_ MAC  --- 0 ACK 38 [0 1 0 0] 
s 1.291601778 _0_ MAC  --- 0 RTS 44 [256e 1 0 0] 
r 1.291954078 _1_ MAC  --- 0 RTS 44 [256e 1 0 0] 
s 1.291964078 _1_ MAC  --- 0 CTS 38 [2434 0 0 0] 
r 1.292268378 _0_ MAC  --- 0 CTS 38 [2434 0 0 0] 
s 1.292278378 _0_ MAC  --- 25 tcp 1118 [13a 1 0 800] ------- [0:0 1:0 32 1] [15 0] 0 0
r 1.301222678 _1_ MAC  --- 25 tcp 1060 [13a 1 0 800] ------- [0:0 1:0 32 1] [15 0] 1 0
s 1.301232678 _1_ MAC  --- 0 ACK 38 [0 0 0 0] 
r 1.301247678 _1_ AGT  --- 25 tcp 1060 [13a 1 0 800] ------- [0:0 1:0 32 1] [15 0] 1 0
s 1.301247678 _1_ AGT  --- 48 ack 40 [0 0 0 0] ------- [1:0 0:0 32 0] [15 0] 0 0
r 1.301247678 _1_ RTR  --- 48 ack 40 [0 0 0 0] ------- [1:0 0:0 32 0] [15 0] 0 0