+ 0.01 0 2 cbr 500 ------- 0 0.0 3.0 0 0
- 0.01 0 2 cbr 500 ------- 0 0.0 3.0 0 0
+ 0.01 1 2 cbr 500 ------- 0 1.0 3.0 0 1
- 0.01 1 2 cbr 500 ------- 0 1.0 3.0 0 1
+ 0.015 0 2 cbr 500 ------- 0 0.0 3.0 1 2
- 0.015 0 2 cbr 500 ------- 0 0.0 3.0 1 2
+ 0.015 1 2 cbr 500 ------- 0 1.0 3.0 1 3
- 0.015 1 2 cbr 500 ------- 0 1.0 3.0 1 3
+ 0.02 0 2 cbr 500 ------- 0 0.0 3.0 2 4
- 0.02 0 2 cbr 500 ------- 0 0.0 3.0 2 4
+ 0.02 1 2 cbr 500 ------- 0 1.0 3.0 2 5
- 0.02 1 2 cbr 500 ------- 0 1.0 3.0 2 5
+ 0.025 0 2 cbr 500 ------- 0 0.0 3.0 3 6
- 0.025 0 2 cbr 500 ------- 0 0.0 3.0 3 6
+ 0.025 1 2 cbr 500 ------- 0 1.0 3.0 3 7
- 0.025 1 2 cbr 500 ------- 0 1.0 3.0 3 7
+ 0.03 0 2 cbr 500 ------- 0 0.0 3.0 4 8
- 0.03 0 2 cbr 500 ------- 0 0.0 3.0 4 8
+ 0.03 1 2 cbr 500 ------- 0 1.0 3.0 4 9
- 0.03 1 2 cbr 500 ------- 0 1.0 3.0 4 9
+ 0.035 0 2 cbr 500 ------- 0 0.0 3.0 5 10
- 0.035 0 2 cbr 500 ------- 0 0.0 3.0 5 10
+ 0.035 1 2 cbr 500 ------- 0 1.0 3.0 5 11
- 0.035 1 2 cbr 500 ------- 0 1.0 3.0 5 11
+ 0.04 0 2 cbr 500 ------- 0 0.0 3.0 6 12
- 0.04 0 2 cbr 500 ------- 0 0.0 3.0 6 12
+ 0.04 1 2 cbr 500 ------- 0 1.0 3.0 6 13
- 0.04 1 2 cbr 500 ------- 0 1.0 3.0 6 13
+ 0.045 0 2 cbr 500 ------- 0 0.0 3.0 7 14
- 0.045 0 2 cbr 500 ------- 0 0.0 3.0 7 14
+ 0.045 1 2 cbr 500 ------- 0 1.0 3.0 7 15
- 0.045 1 2 cbr 500 ------- 0 1.0 3.0 7 15
+ 0.05 0 2 cbr 500 ------- 0 0.0 3.0 8 16
- 0.05 0 2 cbr 500 ------- 0 0.0 3.0 8 16
+ 0.05 1 2 cbr 500 ------- 0 1.0 3.0 8 17
- 0.05 1 2 cbr 500 ------- 0 1.0 3.0 8 17
+ 0.055 0 2 cbr 500 ------- 0 0.0 3.0 9 18
- 0.055 0 2 cbr 500 ------- 0 0.0 3.0 9 18
+ 0.055 1 2 cbr 500 ------- 0 1.0 3.0 9 19
- 0.055 1 2 cbr 500 ------- 0 1.0 3.0 9 19
+ 0.06 0 2 cbr 500 ------- 0 0.0 3.0 10 20
- 0.06 0 2 cbr 500 ------- 0 0.0 3.0 10 20
+ 0.06 1 2 cbr 500 ------- 0 1.0 3.0 10 21
- 0.06 1 2 cbr 500 ------- 0 1.0 3.0 10 21
+ 0.065 0 2 cbr 500 ------- 0 0.0 3.0 11 22
- 0.065 0 2 cbr 500 ------- 0 0.0 3.0 11 22
+ 0.065 1 2 cbr 500 ------- 0 1.0 3.0 11 23
- 0.065 1 2 cbr 500 ------- 0 1.0 3.0 11 23
+ 0.07 0 2 cbr 500 ------- 0 0.0 3.0 12 24
- 0.07 0 2 cbr 500 ------- 0 0.0 3.0 12 24
+ 0.07 1 2 cbr 500 ------- 0 1.0 3.0 12 25
- 0.07 1 2 cbr 500 ------- 0 1.0 3.0 12 25
+ 0.075 0 2 cbr 500 ------- 0 0.0 3.0 13 26
- 0.075 0 2 cbr 500 ------- 0 0.0 3.0 13 26
+ 0.075 1 2 cbr 500 ------- 0 1.0 3.0 13 27
- 0.075 1 2 cbr 500 ------- 0 1.0 3.0 13 27
+ 0.08 0 2 cbr 500 ------- 0 0.0 3.0 14 28
- 0.08 0 2 cbr 500 ------- 0 0.0 3.0 14 28
+ 0.08 1 2 cbr 500 ------- 0 1.0 3.0 14 29
- 0.08 1 2 cbr 500 ------- 0 1.0 3.0 14 29
+ 0.085 0 2 cbr 500 ------- 0 0.0 3.0 15 30
- 0.085 0 2 cbr 500 ------- 0 0.0 3.0 15 30
+ 0.085 1 2 cbr 500 ------- 0 1.0 3.0 15 31
- 0.085 1 2 cbr 500 ------- 0 1.0 3.0 15 31
+ 0.09 0 2 cbr 500 ------- 0 0.0 3.0 16 32
- 0.09 0 2 cbr 500 ------- 0 0.0 3.0 16 32
+ 0.09 1 2 cbr 500 ------- 0 1.0 3.0 16 33
- 0.09 1 2 cbr 500 ------- 0 1.0 3.0 16 33
+ 0.095 0 2 cbr 500 ------- 0 0.0 3.0 17 34
- 0.095 0 2 cbr 500 ------- 0 0.0 3.0 17 34
+ 0.095 1 2 cbr 500 ------- 0 1.0 3.0 17 35
- 0.095 1 2 cbr 500 ------- 0 1.0 3.0 17 35
+ 0.1 0 2 cbr 500 ------- 0 0.0 3.0 18 36
- 0.1 0 2 cbr 500 ------- 0 0.0 3.0 18 36
+ 0.1 1 2 cbr 500 ------- 0 1.0 3.0 18 37
- 0.1 1 2 cbr 500 ------- 0 1.0 3.0 18 37
+ 0.105 0 2 cbr 500 ------- 0 0.0 3.0 19 38
- 0.105 0 2 cbr 500 ------- 0 0.0 3.0 19 38
+ 0.105 1 2 cbr 500 ------- 0 1.0 3.0 19 39
- 0.105 1 2 cbr 500 ------- 0 1.0 3.0 19 39
+ 0.11 0 2 cbr 500 ------- 0 0.0 3.0 20 40
- 0.11 0 2 cbr 500 ------- 0 0.0 3.0 20 40
+ 0.11 1 2 cbr 500 ------- 0 1.0 3.0 20 41
- 0.11 1 2 cbr 500 ------- 0 1.0 3.0 20 41
+ 0.115 0 2 cbr 500 ------- 0 0.0 3.0 21 42
- 0.115 0 2 cbr 500 ------- 0 0.0 3.0 21 42
+ 0.115 1 2 cbr 500 ------- 0 1.0 3.0 21 43
- 0.115 1 2 cbr 500 ------- 0 1.0 3.0 21 43
+ 0.12 0 2 cbr 500 ------- 0 0.0 3.0 22 44
- 0.12 0 2 cbr 500 ------- 0 0.0 3.0 22 44
+ 0.12 1 2 cbr 500 ------- 0 1.0 3.0 22 45
- 0.12 1 2 cbr 500 ------- 0 1.0 3.0 22 45
+ 0.125 0 2 cbr 500 ------- 0 0.0 3.0 23 46
- 0.125 0 2 cbr 500 ------- 0 0.0 3.0 23 46
+ 0.125 1 2 cbr 500 ------- 0 1.0 3.0 23 47
- 0.125 1 2 cbr 500 ------- 0 1.0 3.0 23 47
+ 0.13 0 2 cbr 500 ------- 0 0.0 3.0 24 48
- 0.13 0 2 cbr 500 ------- 0 0.0 3.0 24 48
+ 0.13 1 2 cbr 500 ------- 0 1.0 3.0 24 49
- 0.13 1 2 cbr 500 ------- 0 1.0 3.0 24 49
+ 0.135 0 2 cbr 500 ------- 0 0.0 3.0 25 50
- 0.135 0 2 cbr 500 ------- 0 0.0 3.0 25 50
+ 0.135 1 2 cbr 500 ------- 0 1.0 3.0 25 51
- 0.135 1 2 cbr 500 ------- 0 1.0 3.0 25 51
+ 0.14 0 2 cbr 500 ------- 0 0.0 3.0 26 52
- 0.14 0 2 cbr 500 ------- 0 0.0 3.0 26 52
+ 0.14 1 2 cbr 500 ------- 0 1.0 3.0 26 53
- 0.14 1 2 cbr 500 ------- 0 1.0 3.0 26 53
+ 0.145 0 2 cbr 500 ------- 0 0.0 3.0 27 54
- 0.145 0 2 cbr 500 ------- 0 0.0 3.0 27 54
+ 0.145 1 2 cbr 500 ------- 0 1.0 3.0 27 55
- 0.145 1 2 cbr 500 ------- 0 1.0 3.0 27 55
+ 0.15 0 2 cbr 500 ------- 0 0.0 3.0 28 56
- 0.15 0 2 cbr 500 ------- 0 0.0 3.0 28 56
+ 0.15 1 2 cbr 500 ------- 0 1.0 3.0 28 57
- 0.15 1 2 cbr 500 ------- 0 1.0 3.0 28 57
+ 0.155 0 2 cbr 500 ------- 0 0.0 3.0 29 58
- 0.155 0 2 cbr 500 ------- 0 0.0 3.0 29 58
+ 0.155 1 2 cbr 500 ------- 0 1.0 3.0 29 59
- 0.155 1 2 cbr 500 ------- 0 1.0 3.0 29 59
+ 0.16 0 2 cbr 500 ------- 0 0.0 3.0 30 60
- 0.16 0 2 cbr 500 ------- 0 0.0 3.0 30 60
+ 0.16 1 2 cbr 500 ------- 0 1.0 3.0 30 61
- 0.16 1 2 cbr 500 ------- 0 1.0 3.0 30 61
+ 0.165 0 2 cbr 500 ------- 0 0.0 3.0 31 62
- 0.165 0 2 cbr 500 ------- 0 0.0 3.0 31 62
+ 0.165 1 2 cbr 500 ------- 0 1.0 3.0 31 63
- 0.165 1 2 cbr 500 ------- 0 1.0 3.0 31 63
+ 0.17 0 2 cbr 500 ------- 0 0.0 3.0 32 64
- 0.17 0 2 cbr 500 ------- 0 0.0 3.0 32 64
+ 0.17 1 2 cbr 500 ------- 0 1.0 3.0 32 65
- 0.17 1 2 cbr 500 ------- 0 1.0 3.0 32 65
+ 0.175 0 2 cbr 500 ------- 0 0.0 3.0 33 66
- 0.175 0 2 cbr 500 ------- 0 0.0 3.0 33 66
+ 0.175 1 2 cbr 500 ------- 0 1.0 3.0 33 67
- 0.175 1 2 cbr 500 ------- 0 1.0 3.0 33 67
+ 0.18 0 2 cbr 500 ------- 0 0.0 3.0 34 68
- 0.18 0 2 cbr 500 ------- 0 0.0 3.0 34 68
+ 0.18 1 2 cbr 500 ------- 0 1.0 3.0 34 69
- 0.18 1 2 cbr 500 ------- 0 1.0 3.0 34 69
+ 0.185 0 2 cbr 500 ------- 0 0.0 3.0 35 70
- 0.185 0 2 cbr 500 ------- 0 0.0 3.0 35 70
+ 0.185 1 2 cbr 500 ------- 0 1.0 3.0 35 71
- 0.185 1 2 cbr 500 ------- 0 1.0 3.0 35 71
+ 0.19 0 2 cbr 500 ------- 0 0.0 3.0 36 72
- 0.19 0 2 cbr 500 ------- 0 0.0 3.0 36 72
+ 0.19 1 2 cbr 500 ------- 0 1.0 3.0 36 73
- 0.19 1 2 cbr 500 ------- 0 1.0 3.0 36 73
+ 0.195 0 2 cbr 500 ------- 0 0.0 3.0 37 74
- 0.195 0 2 cbr 500 ------- 0 0.0 3.0 37 74
+ 0.195 1 2 cbr 500 ------- 0 1.0 3.0 37 75
- 0.195 1 2 cbr 500 ------- 0 1.0 3.0 37 75
+ 0.2 0 2 cbr 500 ------- 0 0.0 3.0 38 76
- 0.2 0 2 cbr 500 ------- 0 0.0 3.0 38 76
+ 0.2 1 2 cbr 500 ------- 0 1.0 3.0 38 77
- 0.2 1 2 cbr 500 ------- 0 1.0 3.0 38 77
+ 0.205 0 2 cbr 500 ------- 0 0.0 3.0 39 78
- 0.205 0 2 cbr 500 ------- 0 0.0 3.0 39 78
+ 0.205 1 2 cbr 500 ------- 0 1.0 3.0 39 79
- 0.205 1 2 cbr 500 ------- 0 1.0 3.0 39 79
+ 0.21 0 2 cbr 500 ------- 0 0.0 3.0 40 80
- 0.21 0 2 cbr 500 ------- 0 0.0 3.0 40 80
+ 0.21 1 2 cbr 500 ------- 0 1.0 3.0 40 81
- 0.21 1 2 cbr 500 ------- 0 1.0 3.0 40 81
+ 0.215 0 2 cbr 500 ------- 0 0.0 3.0 41 82
- 0.215 0 2 cbr 500 ------- 0 0.0 3.0 41 82
+ 0.215 1 2 cbr 500 ------- 0 1.0 3.0 41 83
- 0.215 1 2 cbr 500 ------- 0 1.0 3.0 41 83
+ 0.22 0 2 cbr 500 ------- 0 0.0 3.0 42 84
- 0.22 0 2 cbr 500 ------- 0 0.0 3.0 42 84
+ 0.22 1 2 cbr 500 ------- 0 1.0 3.0 42 85
- 0.22 1 2 cbr 500 ------- 0 1.0 3.0 42 85
+ 0.225 0 2 cbr 500 ------- 0 0.0 3.0 43 86
- 0.225 0 2 cbr 500 ------- 0 0.0 3.0 43 86
+ 0.225 1 2 cbr 500 ------- 0 1.0 3.0 43 87
- 0.225 1 2 cbr 500 ------- 0 1.0 3.0 43 87
+ 0.23 0 2 cbr 500 ------- 0 0.0 3.0 44 88
- 0.23 0 2 cbr 500 ------- 0 0.0 3.0 44 88
+ 0.23 1 2 cbr 500 ------- 0 1.0 3.0 44 89
- 0.23 1 2 cbr 500 ------- 0 1.0 3.0 44 89
+ 0.235 0 2 cbr 500 ------- 0 0.0 3.0 45 90
- 0.235 0 2 cbr 500 ------- 0 0.0 3.0 45 90
+ 0.235 1 2 cbr 500 ------- 0 1.0 3.0 45 91
- 0.235 1 2 cbr 500 ------- 0 1.0 3.0 45 91
+ 0.24 0 2 cbr 500 ------- 0 0.0 3.0 46 92
- 0.24 0 2 cbr 500 ------- 0 0.0 3.0 46 92
+ 0.24 1 2 cbr 500 ------- 0 1.0 3.0 46 93
- 0.24 1 2 cbr 500 ------- 0 1.0 3.0 46 93
+ 0.245 0 2 cbr 500 ------- 0 0.0 3.0 47 94
- 0.245 0 2 cbr 500 ------- 0 0.0 3.0 47 94
+ 0.245 1 2 cbr 500 ------- 0 1.0 3.0 47 95
- 0.245 1 2 cbr 500 ------- 0 1.0 3.0 47 95
+ 0.25 0 2 cbr 500 ------- 0 0.0 3.0 48 96
- 0.25 0 2 cbr 500 ------- 0 0.0 3.0 48 96
+ 0.25 1 2 cbr 500 ------- 0 1.0 3.0 48 97
- 0.25 1 2 cbr 500 ------- 0 1.0 3.0 48 97
+ 0.255 0 2 cbr 500 ------- 0 0.0 3.0 49 98
- 0.255 0 2 cbr 500 ------- 0 0.0 3.0 49 98
+ 0.255 1 2 cbr 500 ------- 0 1.0 3.0 49 99
- 0.255 1 2 cbr 500 ------- 0 1.0 3.0 49 99
+ 0.26 0 2 cbr 500 ------- 0 0.0 3.0 50 100
- 0.26 0 2 cbr 500 ------- 0 0.0 3.0 50 100
+ 0.26 1 2 cbr 500 ------- 0 1.0 3.0 50 101
- 0.26 1 2 cbr 500 ------- 0 1.0 3.0 50 101
+ 0.265 0 2 cbr 500 ------- 0 0.0 3.0 51 102
- 0.265 0 2 cbr 500 ------- 0 0.0 3.0 51 102
+ 0.265 1 2 cbr 500 ------- 0 1.0 3.0 51 103
- 0.265 1 2 cbr 500 ------- 0 1.0 3.0 51 103
+ 0.27 0 2 cbr 500 ------- 0 0.0 3.0 52 104
- 0.27 0 2 cbr 500 ------- 0 0.0 3.0 52 104
+ 0.27 1 2 cbr 500 ------- 0 1.0 3.0 52 105
- 0.27 1 2 cbr 500 ------- 0 1.0 3.0 52 105
+ 0.275 0 2 cbr 500 ------- 0 0.0 3.0 53 106
- 0.275 0 2 cbr 500 ------- 0 0.0 3.0 53 106
+ 0.275 1 2 cbr 500 ------- 0 1.0 3.0 53 107
- 0.275 1 2 cbr 500 ------- 0 1.0 3.0 53 107
+ 0.28 0 2 cbr 500 ------- 0 0.0 3.0 54 108
- 0.28 0 2 cbr 500 ------- 0 0.0 3.0 54 108
+ 0.28 1 2 cbr 500 ------- 0 1.0 3.0 54 109
- 0.28 1 2 cbr 500 ------- 0 1.0 3.0 54 109
+ 0.285 0 2 cbr 500 ------- 0 0.0 3.0 55 110
- 0.285 0 2 cbr 500 ------- 0 0.0 3.0 55 110
+ 0.285 1 2 cbr 500 ------- 0 1.0 3.0 55 111
- 0.285 1 2 cbr 500 ------- 0 1.0 3.0 55 111
+ 0.29 0 2 cbr 500 ------- 0 0.0 3.0 56 112
- 0.29 0 2 cbr 500 ------- 0 0.0 3.0 56 112
+ 0.29 1 2 cbr 500 ------- 0 1.0 3.0 56 113
- 0.29 1 2 cbr 500 ------- 0 1.0 3.0 56 113
+ 0.295 0 2 cbr 500 ------- 0 0.0 3.0 57 114
- 0.295 0 2 cbr 500 ------- 0 0.0 3.0 57 114
+ 0.295 1 2 cbr 500 ------- 0 1.0 3.0 57 115
- 0.295 1 2 cbr 500 ------- 0 1.0 3.0 57 115
+ 0.3 0 2 cbr 500 ------- 0 0.0 3.0 58 116
- 0.3 0 2 cbr 500 ------- 0 0.0 3.0 58 116
+ 0.3 1 2 cbr 500 ------- 0 1.0 3.0 58 117
- 0.3 1 2 cbr 500 ------- 0 1.0 3.0 58 117
+ 0.305 0 2 cbr 500 ------- 0 0.0 3.0 59 118
- 0.305 0 2 cbr 500 ------- 0 0.0 3.0 59 118
+ 0.305 1 2 cbr 500 ------- 0 1.0 3.0 59 119
- 0.305 1 2 cbr 500 ------- 0 1.0 3.0 59 119
+ 0.31 0 2 cbr 500 ------- 0 0.0 3.0 60 120
- 0.31 0 2 cbr 500 ------- 0 0.0 3.0 60 120
+ 0.31 1 2 cbr 500 ------- 0 1.0 3.0 60 121
- 0.31 1 2 cbr 500 ------- 0 1.0 3.0 60 121
r 0.3104 0 2 cbr 500 ------- 0 0.0 3.0 0 0
+ 0.3104 2 3 cbr 500 ------- 0 0.0 3.0 0 0
- 0.3104 2 3 cbr 500 ------- 0 0.0 3.0 0 0
r 0.3104 1 2 cbr 500 ------- 0 1.0 3.0 0 1
+ 0.3104 2 3 cbr 500 ------- 0 1.0 3.0 0 1
- 0.3144 2 3 cbr 500 ------- 0 1.0 3.0 0 1
+ 0.315 0 2 cbr 500 ------- 0 0.0 3.0 61 122
- 0.315 0 2 cbr 500 ------- 0 0.0 3.0 61 122
+ 0.315 1 2 cbr 500 ------- 0 1.0 3.0 61 123
- 0.315 1 2 cbr 500 ------- 0 1.0 3.0 61 123
r 0.3154 0 2 cbr 500 ------- 0 0.0 3.0 1 2
+ 0.3154 2 3 cbr 500 ------- 0 0.0 3.0 1 2
r 0.3154 1 2 cbr 500 ------- 0 1.0 3.0 1 3
+ 0.3154 2 3 cbr 500 ------- 0 1.0 3.0 1 3
- 0.3184 2 3 cbr 500 ------- 0 0.0 3.0 1 2
+ 0.32 0 2 cbr 500 ------- 0 0.0 3.0 62 124
- 0.32 0 2 cbr 500 ------- 0 0.0 3.0 62 124
+ 0.32 1 2 cbr 500 ------- 0 1.0 3.0 62 125
- 0.32 1 2 cbr 500 ------- 0 1.0 3.0 62 125
r 0.3204 0 2 cbr 500 ------- 0 0.0 3.0 2 4
+ 0.3204 2 3 cbr 500 ------- 0 0.0 3.0 2 4
r 0.3204 1 2 cbr 500 ------- 0 1.0 3.0 2 5
+ 0.3204 2 3 cbr 500 ------- 0 1.0 3.0 2 5
- 0.3224 2 3 cbr 500 ------- 0 1.0 3.0 1 3
+ 0.325 0 2 cbr 500 ------- 0 0.0 3.0 63 126
- 0.325 0 2 cbr 500 ------- 0 0.0 3.0 63 126
+ 0.325 1 2 cbr 500 ------- 0 1.0 3.0 63 127
- 0.325 1 2 cbr 500 ------- 0 1.0 3.0 63 127
r 0.3254 0 2 cbr 500 ------- 0 0.0 3.0 3 6
+ 0.3254 2 3 cbr 500 ------- 0 0.0 3.0 3 6
r 0.3254 1 2 cbr 500 ------- 0 1.0 3.0 3 7
+ 0.3254 2 3 cbr 500 ------- 0 1.0 3.0 3 7
- 0.3264 2 3 cbr 500 ------- 0 0.0 3.0 2 4
+ 0.33 0 2 cbr 500 ------- 0 0.0 3.0 64 128
- 0.33 0 2 cbr 500 ------- 0 0.0 3.0 64 128
+ 0.33 1 2 cbr 500 ------- 0 1.0 3.0 64 129
- 0.33 1 2 cbr 500 ------- 0 1.0 3.0 64 129
r 0.3304 0 2 cbr 500 ------- 0 0.0 3.0 4 8
+ 0.3304 2 3 cbr 500 ------- 0 0.0 3.0 4 8
r 0.3304 1 2 cbr 500 ------- 0 1.0 3.0 4 9
+ 0.3304 2 3 cbr 500 ------- 0 1.0 3.0 4 9
- 0.3304 2 3 cbr 500 ------- 0 1.0 3.0 2 5
- 0.3344 2 3 cbr 500 ------- 0 0.0 3.0 3 6
+ 0.335 0 2 cbr 500 ------- 0 0.0 3.0 65 130
- 0.335 0 2 cbr 500 ------- 0 0.0 3.0 65 130
+ 0.335 1 2 cbr 500 ------- 0 1.0 3.0 65 131
- 0.335 1 2 cbr 500 ------- 0 1.0 3.0 65 131
r 0.3354 0 2 cbr 500 ------- 0 0.0 3.0 5 10
+ 0.3354 2 3 cbr 500 ------- 0 0.0 3.0 5 10
r 0.3354 1 2 cbr 500 ------- 0 1.0 3.0 5 11
+ 0.3354 2 3 cbr 500 ------- 0 1.0 3.0 5 11
- 0.3384 2 3 cbr 500 ------- 0 1.0 3.0 3 7
+ 0.34 0 2 cbr 500 ------- 0 0.0 3.0 66 132
- 0.34 0 2 cbr 500 ------- 0 0.0 3.0 66 132
+ 0.34 1 2 cbr 500 ------- 0 1.0 3.0 66 133
- 0.34 1 2 cbr 500 ------- 0 1.0 3.0 66 133
r 0.3404 0 2 cbr 500 ------- 0 0.0 3.0 6 12
+ 0.3404 2 3 cbr 500 ------- 0 0.0 3.0 6 12
r 0.3404 1 2 cbr 500 ------- 0 1.0 3.0 6 13
+ 0.3404 2 3 cbr 500 ------- 0 1.0 3.0 6 13
- 0.3424 2 3 cbr 500 ------- 0 0.0 3.0 4 8
+ 0.345 0 2 cbr 500 ------- 0 0.0 3.0 67 134
- 0.345 0 2 cbr 500 ------- 0 0.0 3.0 67 134
+ 0.345 1 2 cbr 500 ------- 0 1.0 3.0 67 135
- 0.345 1 2 cbr 500 ------- 0 1.0 3.0 67 135
r 0.3454 0 2 cbr 500 ------- 0 0.0 3.0 7 14
+ 0.3454 2 3 cbr 500 ------- 0 0.0 3.0 7 14
r 0.3454 1 2 cbr 500 ------- 0 1.0 3.0 7 15
+ 0.3454 2 3 cbr 500 ------- 0 1.0 3.0 7 15
- 0.3464 2 3 cbr 500 ------- 0 1.0 3.0 4 9
+ 0.35 0 2 cbr 500 ------- 0 0.0 3.0 68 136
- 0.35 0 2 cbr 500 ------- 0 0.0 3.0 68 136
+ 0.35 1 2 cbr 500 ------- 0 1.0 3.0 68 137
- 0.35 1 2 cbr 500 ------- 0 1.0 3.0 68 137
r 0.3504 0 2 cbr 500 ------- 0 0.0 3.0 8 16
+ 0.3504 2 3 cbr 500 ------- 0 0.0 3.0 8 16
r 0.3504 1 2 cbr 500 ------- 0 1.0 3.0 8 17
+ 0.3504 2 3 cbr 500 ------- 0 1.0 3.0 8 17
- 0.3504 2 3 cbr 500 ------- 0 0.0 3.0 5 10
- 0.3544 2 3 cbr 500 ------- 0 1.0 3.0 5 11
+ 0.355 0 2 cbr 500 ------- 0 0.0 3.0 69 138
- 0.355 0 2 cbr 500 ------- 0 0.0 3.0 69 138
+ 0.355 1 2 cbr 500 ------- 0 1.0 3.0 69 139
- 0.355 1 2 cbr 500 ------- 0 1.0 3.0 69 139
r 0.3554 0 2 cbr 500 ------- 0 0.0 3.0 9 18
+ 0.3554 2 3 cbr 500 ------- 0 0.0 3.0 9 18
r 0.3554 1 2 cbr 500 ------- 0 1.0 3.0 9 19
+ 0.3554 2 3 cbr 500 ------- 0 1.0 3.0 9 19
- 0.3584 2 3 cbr 500 ------- 0 0.0 3.0 6 12
+ 0.36 0 2 cbr 500 ------- 0 0.0 3.0 70 140
- 0.36 0 2 cbr 500 ------- 0 0.0 3.0 70 140
+ 0.36 1 2 cbr 500 ------- 0 1.0 3.0 70 141
- 0.36 1 2 cbr 500 ------- 0 1.0 3.0 70 141
r 0.3604 0 2 cbr 500 ------- 0 0.0 3.0 10 20
+ 0.3604 2 3 cbr 500 ------- 0 0.0 3.0 10 20
r 0.3604 1 2 cbr 500 ------- 0 1.0 3.0 10 21
+ 0.3604 2 3 cbr 500 ------- 0 1.0 3.0 10 21
- 0.3624 2 3 cbr 500 ------- 0 1.0 3.0 6 13
+ 0.365 0 2 cbr 500 ------- 0 0.0 3.0 71 142
- 0.365 0 2 cbr 500 ------- 0 0.0 3.0 71 142
+ 0.365 1 2 cbr 500 ------- 0 1.0 3.0 71 143
- 0.365 1 2 cbr 500 ------- 0 1.0 3.0 71 143
r 0.3654 0 2 cbr 500 ------- 0 0.0 3.0 11 22
+ 0.3654 2 3 cbr 500 ------- 0 0.0 3.0 11 22
r 0.3654 1 2 cbr 500 ------- 0 1.0 3.0 11 23
+ 0.3654 2 3 cbr 500 ------- 0 1.0 3.0 11 23
- 0.3664 2 3 cbr 500 ------- 0 0.0 3.0 7 14
+ 0.37 0 2 cbr 500 ------- 0 0.0 3.0 72 144
- 0.37 0 2 cbr 500 ------- 0 0.0 3.0 72 144
+ 0.37 1 2 cbr 500 ------- 0 1.0 3.0 72 145
- 0.37 1 2 cbr 500 ------- 0 1.0 3.0 72 145
r 0.3704 0 2 cbr 500 ------- 0 0.0 3.0 12 24
+ 0.3704 2 3 cbr 500 ------- 0 0.0 3.0 12 24
r 0.3704 1 2 cbr 500 ------- 0 1.0 3.0 12 25
+ 0.3704 2 3 cbr 500 ------- 0 1.0 3.0 12 25
- 0.3704 2 3 cbr 500 ------- 0 1.0 3.0 7 15
- 0.3744 2 3 cbr 500 ------- 0 0.0 3.0 8 16
+ 0.375 0 2 cbr 500 ------- 0 0.0 3.0 73 146
- 0.375 0 2 cbr 500 ------- 0 0.0 3.0 73 146
+ 0.375 1 2 cbr 500 ------- 0 1.0 3.0 73 147
- 0.375 1 2 cbr 500 ------- 0 1.0 3.0 73 147
r 0.3754 0 2 cbr 500 ------- 0 0.0 3.0 13 26
+ 0.3754 2 3 cbr 500 ------- 0 0.0 3.0 13 26
r 0.3754 1 2 cbr 500 ------- 0 1.0 3.0 13 27
+ 0.3754 2 3 cbr 500 ------- 0 1.0 3.0 13 27
- 0.3784 2 3 cbr 500 ------- 0 1.0 3.0 8 17
+ 0.38 0 2 cbr 500 ------- 0 0.0 3.0 74 148
- 0.38 0 2 cbr 500 ------- 0 0.0 3.0 74 148
+ 0.38 1 2 cbr 500 ------- 0 1.0 3.0 74 149
- 0.38 1 2 cbr 500 ------- 0 1.0 3.0 74 149
r 0.3804 0 2 cbr 500 ------- 0 0.0 3.0 14 28
+ 0.3804 2 3 cbr 500 ------- 0 0.0 3.0 14 28
r 0.3804 1 2 cbr 500 ------- 0 1.0 3.0 14 29
+ 0.3804 2 3 cbr 500 ------- 0 1.0 3.0 14 29
- 0.3824 2 3 cbr 500 ------- 0 0.0 3.0 9 18
+ 0.385 0 2 cbr 500 ------- 0 0.0 3.0 75 150
- 0.385 0 2 cbr 500 ------- 0 0.0 3.0 75 150
+ 0.385 1 2 cbr 500 ------- 0 1.0 3.0 75 151
- 0.385 1 2 cbr 500 ------- 0 1.0 3.0 75 151
r 0.3854 0 2 cbr 500 ------- 0 0.0 3.0 15 30
+ 0.3854 2 3 cbr 500 ------- 0 0.0 3.0 15 30
r 0.3854 1 2 cbr 500 ------- 0 1.0 3.0 15 31
+ 0.3854 2 3 cbr 500 ------- 0 1.0 3.0 15 31
- 0.3864 2 3 cbr 500 ------- 0 1.0 3.0 9 19
+ 0.39 0 2 cbr 500 ------- 0 0.0 3.0 76 152
- 0.39 0 2 cbr 500 ------- 0 0.0 3.0 76 152
+ 0.39 1 2 cbr 500 ------- 0 1.0 3.0 76 153
- 0.39 1 2 cbr 500 ------- 0 1.0 3.0 76 153
r 0.3904 0 2 cbr 500 ------- 0 0.0 3.0 16 32
+ 0.3904 2 3 cbr 500 ------- 0 0.0 3.0 16 32
r 0.3904 1 2 cbr 500 ------- 0 1.0 3.0 16 33
+ 0.3904 2 3 cbr 500 ------- 0 1.0 3.0 16 33
- 0.3904 2 3 cbr 500 ------- 0 0.0 3.0 10 20
- 0.3944 2 3 cbr 500 ------- 0 1.0 3.0 10 21
+ 0.395 0 2 cbr 500 ------- 0 0.0 3.0 77 154
- 0.395 0 2 cbr 500 ------- 0 0.0 3.0 77 154
+ 0.395 1 2 cbr 500 ------- 0 1.0 3.0 77 155
- 0.395 1 2 cbr 500 ------- 0 1.0 3.0 77 155
r 0.3954 0 2 cbr 500 ------- 0 0.0 3.0 17 34
+ 0.3954 2 3 cbr 500 ------- 0 0.0 3.0 17 34
r 0.3954 1 2 cbr 500 ------- 0 1.0 3.0 17 35
+ 0.3954 2 3 cbr 500 ------- 0 1.0 3.0 17 35
- 0.3984 2 3 cbr 500 ------- 0 0.0 3.0 11 22
+ 0.4 0 2 cbr 500 ------- 0 0.0 3.0 78 156
- 0.4 0 2 cbr 500 ------- 0 0.0 3.0 78 156
+ 0.4 1 2 cbr 500 ------- 0 1.0 3.0 78 157
- 0.4 1 2 cbr 500 ------- 0 1.0 3.0 78 157
r 0.4004 0 2 cbr 500 ------- 0 0.0 3.0 18 36
+ 0.4004 2 3 cbr 500 ------- 0 0.0 3.0 18 36
r 0.4004 1 2 cbr 500 ------- 0 1.0 3.0 18 37
+ 0.4004 2 3 cbr 500 ------- 0 1.0 3.0 18 37
- 0.4024 2 3 cbr 500 ------- 0 1.0 3.0 11 23
+ 0.405 0 2 cbr 500 ------- 0 0.0 3.0 79 158
- 0.405 0 2 cbr 500 ------- 0 0.0 3.0 79 158
+ 0.405 1 2 cbr 500 ------- 0 1.0 3.0 79 159
- 0.405 1 2 cbr 500 ------- 0 1.0 3.0 79 159
r 0.4054 0 2 cbr 500 ------- 0 0.0 3.0 19 38
+ 0.4054 2 3 cbr 500 ------- 0 0.0 3.0 19 38
r 0.4054 1 2 cbr 500 ------- 0 1.0 3.0 19 39
+ 0.4054 2 3 cbr 500 ------- 0 1.0 3.0 19 39
- 0.4064 2 3 cbr 500 ------- 0 0.0 3.0 12 24
+ 0.41 0 2 cbr 500 ------- 0 0.0 3.0 80 160
- 0.41 0 2 cbr 500 ------- 0 0.0 3.0 80 160
+ 0.41 1 2 cbr 500 ------- 0 1.0 3.0 80 161
- 0.41 1 2 cbr 500 ------- 0 1.0 3.0 80 161
r 0.4104 0 2 cbr 500 ------- 0 0.0 3.0 20 40
+ 0.4104 2 3 cbr 500 ------- 0 0.0 3.0 20 40
r 0.4104 1 2 cbr 500 ------- 0 1.0 3.0 20 41
+ 0.4104 2 3 cbr 500 ------- 0 1.0 3.0 20 41
- 0.4104 2 3 cbr 500 ------- 0 1.0 3.0 12 25
- 0.4144 2 3 cbr 500 ------- 0 0.0 3.0 13 26
+ 0.415 0 2 cbr 500 ------- 0 0.0 3.0 81 162
- 0.415 0 2 cbr 500 ------- 0 0.0 3.0 81 162
+ 0.415 1 2 cbr 500 ------- 0 1.0 3.0 81 163
- 0.415 1 2 cbr 500 ------- 0 1.0 3.0 81 163
r 0.4154 0 2 cbr 500 ------- 0 0.0 3.0 21 42
+ 0.4154 2 3 cbr 500 ------- 0 0.0 3.0 21 42
r 0.4154 1 2 cbr 500 ------- 0 1.0 3.0 21 43
+ 0.4154 2 3 cbr 500 ------- 0 1.0 3.0 21 43
- 0.4184 2 3 cbr 500 ------- 0 1.0 3.0 13 27
+ 0.42 0 2 cbr 500 ------- 0 0.0 3.0 82 164
- 0.42 0 2 cbr 500 ------- 0 0.0 3.0 82 164
+ 0.42 1 2 cbr 500 ------- 0 1.0 3.0 82 165
- 0.42 1 2 cbr 500 ------- 0 1.0 3.0 82 165
r 0.4204 0 2 cbr 500 ------- 0 0.0 3.0 22 44
+ 0.4204 2 3 cbr 500 ------- 0 0.0 3.0 22 44
r 0.4204 1 2 cbr 500 ------- 0 1.0 3.0 22 45
+ 0.4204 2 3 cbr 500 ------- 0 1.0 3.0 22 45
- 0.4224 2 3 cbr 500 ------- 0 0.0 3.0 14 28
+ 0.425 0 2 cbr 500 ------- 0 0.0 3.0 83 166
- 0.425 0 2 cbr 500 ------- 0 0.0 3.0 83 166
+ 0.425 1 2 cbr 500 ------- 0 1.0 3.0 83 167
- 0.425 1 2 cbr 500 ------- 0 1.0 3.0 83 167
r 0.4254 0 2 cbr 500 ------- 0 0.0 3.0 23 46
+ 0.4254 2 3 cbr 500 ------- 0 0.0 3.0 23 46
r 0.4254 1 2 cbr 500 ------- 0 1.0 3.0 23 47
+ 0.4254 2 3 cbr 500 ------- 0 1.0 3.0 23 47
- 0.4264 2 3 cbr 500 ------- 0 1.0 3.0 14 29
+ 0.43 0 2 cbr 500 ------- 0 0.0 3.0 84 168
- 0.43 0 2 cbr 500 ------- 0 0.0 3.0 84 168
+ 0.43 1 2 cbr 500 ------- 0 1.0 3.0 84 169
- 0.43 1 2 cbr 500 ------- 0 1.0 3.0 84 169
r 0.4304 0 2 cbr 500 ------- 0 0.0 3.0 24 48
+ 0.4304 2 3 cbr 500 ------- 0 0.0 3.0 24 48
r 0.4304 1 2 cbr 500 ------- 0 1.0 3.0 24 49
+ 0.4304 2 3 cbr 500 ------- 0 1.0 3.0 24 49
- 0.4304 2 3 cbr 500 ------- 0 0.0 3.0 15 30
- 0.4344 2 3 cbr 500 ------- 0 1.0 3.0 15 31
+ 0.435 0 2 cbr 500 ------- 0 0.0 3.0 85 170
- 0.435 0 2 cbr 500 ------- 0 0.0 3.0 85 170
+ 0.435 1 2 cbr 500 ------- 0 1.0 3.0 85 171
- 0.435 1 2 cbr 500 ------- 0 1.0 3.0 85 171
r 0.4354 0 2 cbr 500 ------- 0 0.0 3.0 25 50
+ 0.4354 2 3 cbr 500 ------- 0 0.0 3.0 25 50
r 0.4354 1 2 cbr 500 ------- 0 1.0 3.0 25 51
+ 0.4354 2 3 cbr 500 ------- 0 1.0 3.0 25 51
- 0.4384 2 3 cbr 500 ------- 0 0.0 3.0 16 32
+ 0.44 0 2 cbr 500 ------- 0 0.0 3.0 86 172
- 0.44 0 2 cbr 500 ------- 0 0.0 3.0 86 172
+ 0.44 1 2 cbr 500 ------- 0 1.0 3.0 86 173
- 0.44 1 2 cbr 500 ------- 0 1.0 3.0 86 173
r 0.4404 0 2 cbr 500 ------- 0 0.0 3.0 26 52
+ 0.4404 2 3 cbr 500 ------- 0 0.0 3.0 26 52
r 0.4404 1 2 cbr 500 ------- 0 1.0 3.0 26 53
+ 0.4404 2 3 cbr 500 ------- 0 1.0 3.0 26 53
- 0.4424 2 3 cbr 500 ------- 0 1.0 3.0 16 33
+ 0.445 0 2 cbr 500 ------- 0 0.0 3.0 87 174
- 0.445 0 2 cbr 500 ------- 0 0.0 3.0 87 174
+ 0.445 1 2 cbr 500 ------- 0 1.0 3.0 87 175
- 0.445 1 2 cbr 500 ------- 0 1.0 3.0 87 175
r 0.4454 0 2 cbr 500 ------- 0 0.0 3.0 27 54
+ 0.4454 2 3 cbr 500 ------- 0 0.0 3.0 27 54
r 0.4454 1 2 cbr 500 ------- 0 1.0 3.0 27 55
+ 0.4454 2 3 cbr 500 ------- 0 1.0 3.0 27 55
- 0.4464 2 3 cbr 500 ------- 0 0.0 3.0 17 34
+ 0.45 0 2 cbr 500 ------- 0 0.0 3.0 88 176
- 0.45 0 2 cbr 500 ------- 0 0.0 3.0 88 176
+ 0.45 1 2 cbr 500 ------- 0 1.0 3.0 88 177
- 0.45 1 2 cbr 500 ------- 0 1.0 3.0 88 177
r 0.4504 0 2 cbr 500 ------- 0 0.0 3.0 28 56
+ 0.4504 2 3 cbr 500 ------- 0 0.0 3.0 28 56
r 0.4504 1 2 cbr 500 ------- 0 1.0 3.0 28 57
+ 0.4504 2 3 cbr 500 ------- 0 1.0 3.0 28 57
- 0.4504 2 3 cbr 500 ------- 0 1.0 3.0 17 35
- 0.4544 2 3 cbr 500 ------- 0 0.0 3.0 18 36
+ 0.455 0 2 cbr 500 ------- 0 0.0 3.0 89 178
- 0.455 0 2 cbr 500 ------- 0 0.0 3.0 89 178
+ 0.455 1 2 cbr 500 ------- 0 1.0 3.0 89 179
- 0.455 1 2 cbr 500 ------- 0 1.0 3.0 89 179
r 0.4554 0 2 cbr 500 ------- 0 0.0 3.0 29 58
+ 0.4554 2 3 cbr 500 ------- 0 0.0 3.0 29 58
r 0.4554 1 2 cbr 500 ------- 0 1.0 3.0 29 59
+ 0.4554 2 3 cbr 500 ------- 0 1.0 3.0 29 59
- 0.4584 2 3 cbr 500 ------- 0 1.0 3.0 18 37
+ 0.46 0 2 cbr 500 ------- 0 0.0 3.0 90 180
- 0.46 0 2 cbr 500 ------- 0 0.0 3.0 90 180
+ 0.46 1 2 cbr 500 ------- 0 1.0 3.0 90 181
- 0.46 1 2 cbr 500 ------- 0 1.0 3.0 90 181
r 0.4604 0 2 cbr 500 ------- 0 0.0 3.0 30 60
+ 0.4604 2 3 cbr 500 ------- 0 0.0 3.0 30 60
r 0.4604 1 2 cbr 500 ------- 0 1.0 3.0 30 61
+ 0.4604 2 3 cbr 500 ------- 0 1.0 3.0 30 61
- 0.4624 2 3 cbr 500 ------- 0 0.0 3.0 19 38
+ 0.465 0 2 cbr 500 ------- 0 0.0 3.0 91 182
- 0.465 0 2 cbr 500 ------- 0 0.0 3.0 91 182
+ 0.465 1 2 cbr 500 ------- 0 1.0 3.0 91 183
- 0.465 1 2 cbr 500 ------- 0 1.0 3.0 91 183
r 0.4654 0 2 cbr 500 ------- 0 0.0 3.0 31 62
+ 0.4654 2 3 cbr 500 ------- 0 0.0 3.0 31 62
r 0.4654 1 2 cbr 500 ------- 0 1.0 3.0 31 63
+ 0.4654 2 3 cbr 500 ------- 0 1.0 3.0 31 63
- 0.4664 2 3 cbr 500 ------- 0 1.0 3.0 19 39
+ 0.47 0 2 cbr 500 ------- 0 0.0 3.0 92 184
- 0.47 0 2 cbr 500 ------- 0 0.0 3.0 92 184
+ 0.47 1 2 cbr 500 ------- 0 1.0 3.0 92 185
- 0.47 1 2 cbr 500 ------- 0 1.0 3.0 92 185
r 0.4704 0 2 cbr 500 ------- 0 0.0 3.0 32 64
+ 0.4704 2 3 cbr 500 ------- 0 0.0 3.0 32 64
r 0.4704 1 2 cbr 500 ------- 0 1.0 3.0 32 65
+ 0.4704 2 3 cbr 500 ------- 0 1.0 3.0 32 65
- 0.4704 2 3 cbr 500 ------- 0 0.0 3.0 20 40
- 0.4744 2 3 cbr 500 ------- 0 1.0 3.0 20 41
+ 0.475 0 2 cbr 500 ------- 0 0.0 3.0 93 186
- 0.475 0 2 cbr 500 ------- 0 0.0 3.0 93 186
+ 0.475 1 2 cbr 500 ------- 0 1.0 3.0 93 187
- 0.475 1 2 cbr 500 ------- 0 1.0 3.0 93 187
r 0.4754 0 2 cbr 500 ------- 0 0.0 3.0 33 66
+ 0.4754 2 3 cbr 500 ------- 0 0.0 3.0 33 66
r 0.4754 1 2 cbr 500 ------- 0 1.0 3.0 33 67
+ 0.4754 2 3 cbr 500 ------- 0 1.0 3.0 33 67
- 0.4784 2 3 cbr 500 ------- 0 0.0 3.0 21 42
+ 0.48 0 2 cbr 500 ------- 0 0.0 3.0 94 188
- 0.48 0 2 cbr 500 ------- 0 0.0 3.0 94 188
+ 0.48 1 2 cbr 500 ------- 0 1.0 3.0 94 189
- 0.48 1 2 cbr 500 ------- 0 1.0 3.0 94 189
r 0.4804 0 2 cbr 500 ------- 0 0.0 3.0 34 68
+ 0.4804 2 3 cbr 500 ------- 0 0.0 3.0 34 68
r 0.4804 1 2 cbr 500 ------- 0 1.0 3.0 34 69
+ 0.4804 2 3 cbr 500 ------- 0 1.0 3.0 34 69
- 0.4824 2 3 cbr 500 ------- 0 1.0 3.0 21 43
+ 0.485 0 2 cbr 500 ------- 0 0.0 3.0 95 190
- 0.485 0 2 cbr 500 ------- 0 0.0 3.0 95 190
+ 0.485 1 2 cbr 500 ------- 0 1.0 3.0 95 191
- 0.485 1 2 cbr 500 ------- 0 1.0 3.0 95 191
r 0.4854 0 2 cbr 500 ------- 0 0.0 3.0 35 70
+ 0.4854 2 3 cbr 500 ------- 0 0.0 3.0 35 70
r 0.4854 1 2 cbr 500 ------- 0 1.0 3.0 35 71
+ 0.4854 2 3 cbr 500 ------- 0 1.0 3.0 35 71
- 0.4864 2 3 cbr 500 ------- 0 0.0 3.0 22 44
+ 0.49 0 2 cbr 500 ------- 0 0.0 3.0 96 192
- 0.49 0 2 cbr 500 ------- 0 0.0 3.0 96 192
+ 0.49 1 2 cbr 500 ------- 0 1.0 3.0 96 193
- 0.49 1 2 cbr 500 ------- 0 1.0 3.0 96 193
r 0.4904 0 2 cbr 500 ------- 0 0.0 3.0 36 72
+ 0.4904 2 3 cbr 500 ------- 0 0.0 3.0 36 72
r 0.4904 1 2 cbr 500 ------- 0 1.0 3.0 36 73
+ 0.4904 2 3 cbr 500 ------- 0 1.0 3.0 36 73
- 0.4904 2 3 cbr 500 ------- 0 1.0 3.0 22 45
- 0.4944 2 3 cbr 500 ------- 0 0.0 3.0 23 46
+ 0.495 0 2 cbr 500 ------- 0 0.0 3.0 97 194
- 0.495 0 2 cbr 500 ------- 0 0.0 3.0 97 194
+ 0.495 1 2 cbr 500 ------- 0 1.0 3.0 97 195
- 0.495 1 2 cbr 500 ------- 0 1.0 3.0 97 195
r 0.4954 0 2 cbr 500 ------- 0 0.0 3.0 37 74
+ 0.4954 2 3 cbr 500 ------- 0 0.0 3.0 37 74
r 0.4954 1 2 cbr 500 ------- 0 1.0 3.0 37 75
+ 0.4954 2 3 cbr 500 ------- 0 1.0 3.0 37 75
- 0.4984 2 3 cbr 500 ------- 0 1.0 3.0 23 47
+ 0.5 0 2 cbr 500 ------- 0 0.0 3.0 98 196
- 0.5 0 2 cbr 500 ------- 0 0.0 3.0 98 196
+ 0.5 1 2 cbr 500 ------- 0 1.0 3.0 98 197
- 0.5 1 2 cbr 500 ------- 0 1.0 3.0 98 197
r 0.5004 0 2 cbr 500 ------- 0 0.0 3.0 38 76
+ 0.5004 2 3 cbr 500 ------- 0 0.0 3.0 38 76
r 0.5004 1 2 cbr 500 ------- 0 1.0 3.0 38 77
+ 0.5004 2 3 cbr 500 ------- 0 1.0 3.0 38 77
- 0.5024 2 3 cbr 500 ------- 0 0.0 3.0 24 48
+ 0.505 0 2 cbr 500 ------- 0 0.0 3.0 99 198
- 0.505 0 2 cbr 500 ------- 0 0.0 3.0 99 198
+ 0.505 1 2 cbr 500 ------- 0 1.0 3.0 99 199
- 0.505 1 2 cbr 500 ------- 0 1.0 3.0 99 199
r 0.5054 0 2 cbr 500 ------- 0 0.0 3.0 39 78
+ 0.5054 2 3 cbr 500 ------- 0 0.0 3.0 39 78
r 0.5054 1 2 cbr 500 ------- 0 1.0 3.0 39 79
+ 0.5054 2 3 cbr 500 ------- 0 1.0 3.0 39 79
- 0.5064 2 3 cbr 500 ------- 0 1.0 3.0 24 49
+ 0.51 0 2 cbr 500 ------- 0 0.0 3.0 100 200
- 0.51 0 2 cbr 500 ------- 0 0.0 3.0 100 200
+ 0.51 1 2 cbr 500 ------- 0 1.0 3.0 100 201
- 0.51 1 2 cbr 500 ------- 0 1.0 3.0 100 201
r 0.5104 0 2 cbr 500 ------- 0 0.0 3.0 40 80
+ 0.5104 2 3 cbr 500 ------- 0 0.0 3.0 40 80
r 0.5104 1 2 cbr 500 ------- 0 1.0 3.0 40 81
+ 0.5104 2 3 cbr 500 ------- 0 1.0 3.0 40 81
- 0.5104 2 3 cbr 500 ------- 0 0.0 3.0 25 50
- 0.5144 2 3 cbr 500 ------- 0 1.0 3.0 25 51
+ 0.515 0 2 cbr 500 ------- 0 0.0 3.0 101 202
- 0.515 0 2 cbr 500 ------- 0 0.0 3.0 101 202
+ 0.515 1 2 cbr 500 ------- 0 1.0 3.0 101 203
- 0.515 1 2 cbr 500 ------- 0 1.0 3.0 101 203
r 0.5154 0 2 cbr 500 ------- 0 0.0 3.0 41 82
+ 0.5154 2 3 cbr 500 ------- 0 0.0 3.0 41 82
r 0.5154 1 2 cbr 500 ------- 0 1.0 3.0 41 83
+ 0.5154 2 3 cbr 500 ------- 0 1.0 3.0 41 83
- 0.5184 2 3 cbr 500 ------- 0 0.0 3.0 26 52
+ 0.52 0 2 cbr 500 ------- 0 0.0 3.0 102 204
- 0.52 0 2 cbr 500 ------- 0 0.0 3.0 102 204
+ 0.52 1 2 cbr 500 ------- 0 1.0 3.0 102 205
- 0.52 1 2 cbr 500 ------- 0 1.0 3.0 102 205
r 0.5204 0 2 cbr 500 ------- 0 0.0 3.0 42 84
+ 0.5204 2 3 cbr 500 ------- 0 0.0 3.0 42 84
r 0.5204 1 2 cbr 500 ------- 0 1.0 3.0 42 85
+ 0.5204 2 3 cbr 500 ------- 0 1.0 3.0 42 85
- 0.5224 2 3 cbr 500 ------- 0 1.0 3.0 26 53
+ 0.525 0 2 cbr 500 ------- 0 0.0 3.0 103 206
- 0.525 0 2 cbr 500 ------- 0 0.0 3.0 103 206
+ 0.525 1 2 cbr 500 ------- 0 1.0 3.0 103 207
- 0.525 1 2 cbr 500 ------- 0 1.0 3.0 103 207
r 0.5254 0 2 cbr 500 ------- 0 0.0 3.0 43 86
+ 0.5254 2 3 cbr 500 ------- 0 0.0 3.0 43 86
r 0.5254 1 2 cbr 500 ------- 0 1.0 3.0 43 87
+ 0.5254 2 3 cbr 500 ------- 0 1.0 3.0 43 87
- 0.5264 2 3 cbr 500 ------- 0 0.0 3.0 27 54
+ 0.53 0 2 cbr 500 ------- 0 0.0 3.0 104 208
- 0.53 0 2 cbr 500 ------- 0 0.0 3.0 104 208
+ 0.53 1 2 cbr 500 ------- 0 1.0 3.0 104 209
- 0.53 1 2 cbr 500 ------- 0 1.0 3.0 104 209
r 0.5304 0 2 cbr 500 ------- 0 0.0 3.0 44 88
+ 0.5304 2 3 cbr 500 ------- 0 0.0 3.0 44 88
r 0.5304 1 2 cbr 500 ------- 0 1.0 3.0 44 89
+ 0.5304 2 3 cbr 500 ------- 0 1.0 3.0 44 89
- 0.5304 2 3 cbr 500 ------- 0 1.0 3.0 27 55
- 0.5344 2 3 cbr 500 ------- 0 0.0 3.0 28 56
+ 0.535 0 2 cbr 500 ------- 0 0.0 3.0 105 210
- 0.535 0 2 cbr 500 ------- 0 0.0 3.0 105 210
+ 0.535 1 2 cbr 500 ------- 0 1.0 3.0 105 211
- 0.535 1 2 cbr 500 ------- 0 1.0 3.0 105 211
r 0.5354 0 2 cbr 500 ------- 0 0.0 3.0 45 90
+ 0.5354 2 3 cbr 500 ------- 0 0.0 3.0 45 90
r 0.5354 1 2 cbr 500 ------- 0 1.0 3.0 45 91
+ 0.5354 2 3 cbr 500 ------- 0 1.0 3.0 45 91
- 0.5384 2 3 cbr 500 ------- 0 1.0 3.0 28 57
+ 0.54 0 2 cbr 500 ------- 0 0.0 3.0 106 212
- 0.54 0 2 cbr 500 ------- 0 0.0 3.0 106 212
+ 0.54 1 2 cbr 500 ------- 0 1.0 3.0 106 213
- 0.54 1 2 cbr 500 ------- 0 1.0 3.0 106 213
r 0.5404 0 2 cbr 500 ------- 0 0.0 3.0 46 92
+ 0.5404 2 3 cbr 500 ------- 0 0.0 3.0 46 92
r 0.5404 1 2 cbr 500 ------- 0 1.0 3.0 46 93
+ 0.5404 2 3 cbr 500 ------- 0 1.0 3.0 46 93
- 0.5424 2 3 cbr 500 ------- 0 0.0 3.0 29 58
+ 0.545 0 2 cbr 500 ------- 0 0.0 3.0 107 214
- 0.545 0 2 cbr 500 ------- 0 0.0 3.0 107 214
+ 0.545 1 2 cbr 500 ------- 0 1.0 3.0 107 215