h 0.1 1 7 cbr 500 ------- 0 1.0 5.0 0 0
h 0.101 1 7 cbr 500 ------- 0 1.0 5.0 1 1
h 0.102 1 7 cbr 500 ------- 0 1.0 5.0 2 2
h 0.103 1 7 cbr 500 ------- 0 1.0 5.0 3 3
h 0.104 1 7 cbr 500 ------- 0 1.0 5.0 4 4
h 0.105 1 7 cbr 500 ------- 0 1.0 5.0 5 5
h 0.106 1 7 cbr 500 ------- 0 1.0 5.0 6 6
h 0.107 1 7 cbr 500 ------- 0 1.0 5.0 7 7
h 0.108 1 7 cbr 500 ------- 0 1.0 5.0 8 8
h 0.109 1 7 cbr 500 ------- 0 1.0 5.0 9 9
+ 0.11 1 7 cbr 500 ------- 0 1.0 5.0 0 0
- 0.11 1 7 cbr 500 ------- 0 1.0 5.0 0 0
h 0.11 1 7 cbr 500 ------- 0 1.0 5.0 10 10
+ 0.111 1 7 cbr 500 ------- 0 1.0 5.0 1 1
- 0.111 1 7 cbr 500 ------- 0 1.0 5.0 1 1
h 0.111 1 7 cbr 500 ------- 0 1.0 5.0 11 11
+ 0.112 1 7 cbr 500 ------- 0 1.0 5.0 2 2
- 0.112 1 7 cbr 500 ------- 0 1.0 5.0 2 2
h 0.112 1 7 cbr 500 ------- 0 1.0 5.0 12 12
+ 0.113 1 7 cbr 500 ------- 0 1.0 5.0 3 3
- 0.113 1 7 cbr 500 ------- 0 1.0 5.0 3 3
h 0.113 1 7 cbr 500 ------- 0 1.0 5.0 13 13
+ 0.114 1 7 cbr 500 ------- 0 1.0 5.0 4 4
- 0.114 1 7 cbr 500 ------- 0 1.0 5.0 4 4
h 0.114 1 7 cbr 500 ------- 0 1.0 5.0 14 14
+ 0.115 1 7 cbr 500 ------- 0 1.0 5.0 5 5
- 0.115 1 7 cbr 500 ------- 0 1.0 5.0 5 5
h 0.115 1 7 cbr 500 ------- 0 1.0 5.0 15 15
+ 0.116 1 7 cbr 500 ------- 0 1.0 5.0 6 6
- 0.116 1 7 cbr 500 ------- 0 1.0 5.0 6 6
h 0.116 1 7 cbr 500 ------- 0 1.0 5.0 16 16
+ 0.117 1 7 cbr 500 ------- 0 1.0 5.0 7 7
- 0.117 1 7 cbr 500 ------- 0 1.0 5.0 7 7
h 0.117 1 7 cbr 500 ------- 0 1.0 5.0 17 17
+ 0.118 1 7 cbr 500 ------- 0 1.0 5.0 8 8
- 0.118 1 7 cbr 500 ------- 0 1.0 5.0 8 8
h 0.118 1 7 cbr 500 ------- 0 1.0 5.0 18 18
+ 0.119 1 7 cbr 500 ------- 0 1.0 5.0 9 9
- 0.119 1 7 cbr 500 ------- 0 1.0 5.0 9 9
h 0.119 1 7 cbr 500 ------- 0 1.0 5.0 19 19
+ 0.12 1 7 cbr 500 ------- 0 1.0 5.0 10 10
- 0.12 1 7 cbr 500 ------- 0 1.0 5.0 10 10
h 0.12 1 7 cbr 500 ------- 0 1.0 5.0 20 20
r 0.120415 7 3 cbr 500 ------- 0 1.0 5.0 0 0
d 0.120415 3 6 cbr 500 ------- 0 1.0 5.0 0 0
+ 0.121 1 7 cbr 500 ------- 0 1.0 5.0 11 11
- 0.121 1 7 cbr 500 ------- 0 1.0 5.0 11 11
h 0.121 1 7 cbr 500 ------- 0 1.0 5.0 21 21
r 0.121415 7 3 cbr 500 ------- 0 1.0 5.0 1 1
+ 0.121415 3 6 cbr 500 ------- 0 1.0 5.0 1 1
- 0.121415 3 6 cbr 500 ------- 0 1.0 5.0 1 1
+ 0.122 1 7 cbr 500 ------- 0 1.0 5.0 12 12
- 0.122 1 7 cbr 500 ------- 0 1.0 5.0 12 12
h 0.122 1 7 cbr 500 ------- 0 1.0 5.0 22 22
r 0.122415 7 3 cbr 500 ------- 0 1.0 5.0 2 2
d 0.122415 3 6 cbr 500 ------- 0 1.0 5.0 2 2
+ 0.123 1 7 cbr 500 ------- 0 1.0 5.0 13 13
- 0.123 1 7 cbr 500 ------- 0 1.0 5.0 13 13
h 0.123 1 7 cbr 500 ------- 0 1.0 5.0 23 23
r 0.123415 7 3 cbr 500 ------- 0 1.0 5.0 3 3
d 0.123415 3 6 cbr 500 ------- 0 1.0 5.0 3 3
+ 0.124 1 7 cbr 500 ------- 0 1.0 5.0 14 14
- 0.124 1 7 cbr 500 ------- 0 1.0 5.0 14 14
h 0.124 1 7 cbr 500 ------- 0 1.0 5.0 24 24
r 0.124415 7 3 cbr 500 ------- 0 1.0 5.0 4 4
+ 0.124415 3 6 cbr 500 ------- 0 1.0 5.0 4 4
- 0.124415 3 6 cbr 500 ------- 0 1.0 5.0 4 4
+ 0.125 1 7 cbr 500 ------- 0 1.0 5.0 15 15
- 0.125 1 7 cbr 500 ------- 0 1.0 5.0 15 15
h 0.125 1 7 cbr 500 ------- 0 1.0 5.0 25 25
r 0.125415 7 3 cbr 500 ------- 0 1.0 5.0 5 5
+ 0.125415 3 6 cbr 500 ------- 0 1.0 5.0 5 5
- 0.125415 3 6 cbr 500 ------- 0 1.0 5.0 5 5
+ 0.126 1 7 cbr 500 ------- 0 1.0 5.0 16 16
- 0.126 1 7 cbr 500 ------- 0 1.0 5.0 16 16
h 0.126 1 7 cbr 500 ------- 0 1.0 5.0 26 26
r 0.126415 7 3 cbr 500 ------- 0 1.0 5.0 6 6
+ 0.126415 3 6 cbr 500 ------- 0 1.0 5.0 6 6
- 0.126415 3 6 cbr 500 ------- 0 1.0 5.0 6 6
+ 0.127 1 7 cbr 500 ------- 0 1.0 5.0 17 17
- 0.127 1 7 cbr 500 ------- 0 1.0 5.0 17 17
h 0.127 1 7 cbr 500 ------- 0 1.0 5.0 27 27
r 0.127415 7 3 cbr 500 ------- 0 1.0 5.0 7 7
+ 0.127415 3 6 cbr 500 ------- 0 1.0 5.0 7 7
- 0.127415 3 6 cbr 500 ------- 0 1.0 5.0 7 7
+ 0.128 1 7 cbr 500 ------- 0 1.0 5.0 18 18
- 0.128 1 7 cbr 500 ------- 0 1.0 5.0 18 18
h 0.128 1 7 cbr 500 ------- 0 1.0 5.0 28 28
r 0.128415 7 3 cbr 500 ------- 0 1.0 5.0 8 8
+ 0.128415 3 6 cbr 500 ------- 0 1.0 5.0 8 8
- 0.128415 3 6 cbr 500 ------- 0 1.0 5.0 8 8
+ 0.129 1 7 cbr 500 ------- 0 1.0 5.0 19 19
- 0.129 1 7 cbr 500 ------- 0 1.0 5.0 19 19
h 0.129 1 7 cbr 500 ------- 0 1.0 5.0 29 29
r 0.129415 7 3 cbr 500 ------- 0 1.0 5.0 9 9
+ 0.129415 3 6 cbr 500 ------- 0 1.0 5.0 9 9
- 0.129415 3 6 cbr 500 ------- 0 1.0 5.0 9 9
+ 0.13 1 7 cbr 500 ------- 0 1.0 5.0 20 20
- 0.13 1 7 cbr 500 ------- 0 1.0 5.0 20 20
h 0.13 1 7 cbr 500 ------- 0 1.0 5.0 30 30
r 0.130415 7 3 cbr 500 ------- 0 1.0 5.0 10 10
+ 0.130415 3 6 cbr 500 ------- 0 1.0 5.0 10 10
- 0.130415 3 6 cbr 500 ------- 0 1.0 5.0 10 10
+ 0.131 1 7 cbr 500 ------- 0 1.0 5.0 21 21
- 0.131 1 7 cbr 500 ------- 0 1.0 5.0 21 21
h 0.131 1 7 cbr 500 ------- 0 1.0 5.0 31 31
r 0.131415 7 3 cbr 500 ------- 0 1.0 5.0 11 11
+ 0.131415 3 6 cbr 500 ------- 0 1.0 5.0 11 11
- 0.131415 3 6 cbr 500 ------- 0 1.0 5.0 11 11
r 0.131815 3 6 cbr 500 ------- 0 1.0 5.0 1 1
h 0.131815 6 8 cbr 500 ------- 0 1.0 5.0 1 1
+ 0.132 1 7 cbr 500 ------- 0 1.0 5.0 22 22
- 0.132 1 7 cbr 500 ------- 0 1.0 5.0 22 22
h 0.132 1 7 cbr 500 ------- 0 1.0 5.0 32 32
r 0.132415 7 3 cbr 500 ------- 0 1.0 5.0 12 12
d 0.132415 3 6 cbr 500 ------- 0 1.0 5.0 12 12
+ 0.133 1 7 cbr 500 ------- 0 1.0 5.0 23 23
- 0.133 1 7 cbr 500 ------- 0 1.0 5.0 23 23
h 0.133 1 7 cbr 500 ------- 0 1.0 5.0 33 33
r 0.133415 7 3 cbr 500 ------- 0 1.0 5.0 13 13
d 0.133415 3 6 cbr 500 ------- 0 1.0 5.0 13 13
+ 0.134 1 7 cbr 500 ------- 0 1.0 5.0 24 24
- 0.134 1 7 cbr 500 ------- 0 1.0 5.0 24 24
h 0.134 1 7 cbr 500 ------- 0 1.0 5.0 34 34
r 0.134415 7 3 cbr 500 ------- 0 1.0 5.0 14 14
+ 0.134415 3 6 cbr 500 ------- 0 1.0 5.0 14 14
- 0.134415 3 6 cbr 500 ------- 0 1.0 5.0 14 14
r 0.134815 3 6 cbr 500 ------- 0 1.0 5.0 4 4
h 0.134815 6 8 cbr 500 ------- 0 1.0 5.0 4 4
+ 0.135 1 7 cbr 500 ------- 0 1.0 5.0 25 25
- 0.135 1 7 cbr 500 ------- 0 1.0 5.0 25 25
h 0.135 1 7 cbr 500 ------- 0 1.0 5.0 35 35
r 0.135415 7 3 cbr 500 ------- 0 1.0 5.0 15 15
d 0.135415 3 6 cbr 500 ------- 0 1.0 5.0 15 15
r 0.135815 3 6 cbr 500 ------- 0 1.0 5.0 5 5
h 0.135815 6 8 cbr 500 ------- 0 1.0 5.0 5 5
+ 0.136 1 7 cbr 500 ------- 0 1.0 5.0 26 26
- 0.136 1 7 cbr 500 ------- 0 1.0 5.0 26 26
h 0.136 1 7 cbr 500 ------- 0 1.0 5.0 36 36
r 0.136415 7 3 cbr 500 ------- 0 1.0 5.0 16 16
+ 0.136415 3 6 cbr 500 ------- 0 1.0 5.0 16 16
- 0.136415 3 6 cbr 500 ------- 0 1.0 5.0 16 16
r 0.136815 3 6 cbr 500 ------- 0 1.0 5.0 6 6
h 0.136815 6 8 cbr 500 ------- 0 1.0 5.0 6 6
+ 0.137 1 7 cbr 500 ------- 0 1.0 5.0 27 27
- 0.137 1 7 cbr 500 ------- 0 1.0 5.0 27 27
h 0.137 1 7 cbr 500 ------- 0 1.0 5.0 37 37
r 0.137415 7 3 cbr 500 ------- 0 1.0 5.0 17 17
+ 0.137415 3 6 cbr 500 ------- 0 1.0 5.0 17 17
- 0.137415 3 6 cbr 500 ------- 0 1.0 5.0 17 17
r 0.137815 3 6 cbr 500 ------- 0 1.0 5.0 7 7
h 0.137815 6 8 cbr 500 ------- 0 1.0 5.0 7 7
+ 0.138 1 7 cbr 500 ------- 0 1.0 5.0 28 28
- 0.138 1 7 cbr 500 ------- 0 1.0 5.0 28 28
h 0.138 1 7 cbr 500 ------- 0 1.0 5.0 38 38
r 0.138415 7 3 cbr 500 ------- 0 1.0 5.0 18 18
d 0.138415 3 6 cbr 500 ------- 0 1.0 5.0 18 18
r 0.138815 3 6 cbr 500 ------- 0 1.0 5.0 8 8
h 0.138815 6 8 cbr 500 ------- 0 1.0 5.0 8 8
+ 0.139 1 7 cbr 500 ------- 0 1.0 5.0 29 29
- 0.139 1 7 cbr 500 ------- 0 1.0 5.0 29 29
h 0.139 1 7 cbr 500 ------- 0 1.0 5.0 39 39
r 0.139415 7 3 cbr 500 ------- 0 1.0 5.0 19 19
d 0.139415 3 6 cbr 500 ------- 0 1.0 5.0 19 19
r 0.139815 3 6 cbr 500 ------- 0 1.0 5.0 9 9
h 0.139815 6 8 cbr 500 ------- 0 1.0 5.0 9 9
+ 0.14 1 7 cbr 500 ------- 0 1.0 5.0 30 30
- 0.14 1 7 cbr 500 ------- 0 1.0 5.0 30 30
h 0.14 1 7 cbr 500 ------- 0 1.0 5.0 40 40
r 0.140415 7 3 cbr 500 ------- 0 1.0 5.0 20 20
+ 0.140415 3 6 cbr 500 ------- 0 1.0 5.0 20 20
- 0.140415 3 6 cbr 500 ------- 0 1.0 5.0 20 20
r 0.140815 3 6 cbr 500 ------- 0 1.0 5.0 10 10
h 0.140815 6 8 cbr 500 ------- 0 1.0 5.0 10 10
+ 0.141 1 7 cbr 500 ------- 0 1.0 5.0 31 31
- 0.141 1 7 cbr 500 ------- 0 1.0 5.0 31 31
h 0.141 1 7 cbr 500 ------- 0 1.0 5.0 41 41
r 0.141415 7 3 cbr 500 ------- 0 1.0 5.0 21 21
+ 0.141415 3 6 cbr 500 ------- 0 1.0 5.0 21 21
- 0.141415 3 6 cbr 500 ------- 0 1.0 5.0 21 21
r 0.141815 3 6 cbr 500 ------- 0 1.0 5.0 11 11
h 0.141815 6 8 cbr 500 ------- 0 1.0 5.0 11 11
+ 0.141815 6 8 cbr 500 ------- 0 1.0 5.0 1 1
- 0.141815 6 8 cbr 500 ------- 0 1.0 5.0 1 1
+ 0.142 1 7 cbr 500 ------- 0 1.0 5.0 32 32
- 0.142 1 7 cbr 500 ------- 0 1.0 5.0 32 32
h 0.142 1 7 cbr 500 ------- 0 1.0 5.0 42 42
r 0.142415 7 3 cbr 500 ------- 0 1.0 5.0 22 22
+ 0.142415 3 6 cbr 500 ------- 0 1.0 5.0 22 22
- 0.142415 3 6 cbr 500 ------- 0 1.0 5.0 22 22
+ 0.143 1 7 cbr 500 ------- 0 1.0 5.0 33 33
- 0.143 1 7 cbr 500 ------- 0 1.0 5.0 33 33
h 0.143 1 7 cbr 500 ------- 0 1.0 5.0 43 43
r 0.143415 7 3 cbr 500 ------- 0 1.0 5.0 23 23
+ 0.143415 3 6 cbr 500 ------- 0 1.0 5.0 23 23
- 0.143415 3 6 cbr 500 ------- 0 1.0 5.0 23 23
+ 0.144 1 7 cbr 500 ------- 0 1.0 5.0 34 34
- 0.144 1 7 cbr 500 ------- 0 1.0 5.0 34 34
h 0.144 1 7 cbr 500 ------- 0 1.0 5.0 44 44
r 0.144415 7 3 cbr 500 ------- 0 1.0 5.0 24 24
+ 0.144415 3 6 cbr 500 ------- 0 1.0 5.0 24 24
- 0.144415 3 6 cbr 500 ------- 0 1.0 5.0 24 24
r 0.144815 3 6 cbr 500 ------- 0 1.0 5.0 14 14
h 0.144815 6 8 cbr 500 ------- 0 1.0 5.0 14 14
+ 0.144815 6 8 cbr 500 ------- 0 1.0 5.0 4 4
- 0.144815 6 8 cbr 500 ------- 0 1.0 5.0 4 4
+ 0.145 1 7 cbr 500 ------- 0 1.0 5.0 35 35
- 0.145 1 7 cbr 500 ------- 0 1.0 5.0 35 35
h 0.145 1 7 cbr 500 ------- 0 1.0 5.0 45 45
r 0.145415 7 3 cbr 500 ------- 0 1.0 5.0 25 25
+ 0.145415 3 6 cbr 500 ------- 0 1.0 5.0 25 25
- 0.145415 3 6 cbr 500 ------- 0 1.0 5.0 25 25
+ 0.145815 6 8 cbr 500 ------- 0 1.0 5.0 5 5
- 0.145815 6 8 cbr 500 ------- 0 1.0 5.0 5 5
+ 0.146 1 7 cbr 500 ------- 0 1.0 5.0 36 36
- 0.146 1 7 cbr 500 ------- 0 1.0 5.0 36 36
h 0.146 1 7 cbr 500 ------- 0 1.0 5.0 46 46
r 0.146415 7 3 cbr 500 ------- 0 1.0 5.0 26 26
+ 0.146415 3 6 cbr 500 ------- 0 1.0 5.0 26 26
- 0.146415 3 6 cbr 500 ------- 0 1.0 5.0 26 26
+ 0.146815 6 8 cbr 500 ------- 0 1.0 5.0 6 6
- 0.146815 6 8 cbr 500 ------- 0 1.0 5.0 6 6
r 0.146815 3 6 cbr 500 ------- 0 1.0 5.0 16 16
h 0.146815 6 8 cbr 500 ------- 0 1.0 5.0 16 16
+ 0.147 1 7 cbr 500 ------- 0 1.0 5.0 37 37
- 0.147 1 7 cbr 500 ------- 0 1.0 5.0 37 37
h 0.147 1 7 cbr 500 ------- 0 1.0 5.0 47 47
r 0.147415 7 3 cbr 500 ------- 0 1.0 5.0 27 27
+ 0.147415 3 6 cbr 500 ------- 0 1.0 5.0 27 27
- 0.147415 3 6 cbr 500 ------- 0 1.0 5.0 27 27
+ 0.147815 6 8 cbr 500 ------- 0 1.0 5.0 7 7
- 0.147815 6 8 cbr 500 ------- 0 1.0 5.0 7 7
r 0.147815 3 6 cbr 500 ------- 0 1.0 5.0 17 17
h 0.147815 6 8 cbr 500 ------- 0 1.0 5.0 17 17
+ 0.148 1 7 cbr 500 ------- 0 1.0 5.0 38 38
- 0.148 1 7 cbr 500 ------- 0 1.0 5.0 38 38
h 0.148 1 7 cbr 500 ------- 0 1.0 5.0 48 48
r 0.148415 7 3 cbr 500 ------- 0 1.0 5.0 28 28
+ 0.148415 3 6 cbr 500 ------- 0 1.0 5.0 28 28
- 0.148415 3 6 cbr 500 ------- 0 1.0 5.0 28 28
+ 0.148815 6 8 cbr 500 ------- 0 1.0 5.0 8 8
- 0.148815 6 8 cbr 500 ------- 0 1.0 5.0 8 8
+ 0.149 1 7 cbr 500 ------- 0 1.0 5.0 39 39
- 0.149 1 7 cbr 500 ------- 0 1.0 5.0 39 39
h 0.149 1 7 cbr 500 ------- 0 1.0 5.0 49 49
r 0.149415 7 3 cbr 500 ------- 0 1.0 5.0 29 29
+ 0.149415 3 6 cbr 500 ------- 0 1.0 5.0 29 29
- 0.149415 3 6 cbr 500 ------- 0 1.0 5.0 29 29
+ 0.149815 6 8 cbr 500 ------- 0 1.0 5.0 9 9
- 0.149815 6 8 cbr 500 ------- 0 1.0 5.0 9 9
+ 0.15 1 7 cbr 500 ------- 0 1.0 5.0 40 40
- 0.15 1 7 cbr 500 ------- 0 1.0 5.0 40 40
h 0.15 1 7 cbr 500 ------- 0 1.0 5.0 50 50
r 0.150415 7 3 cbr 500 ------- 0 1.0 5.0 30 30
+ 0.150415 3 6 cbr 500 ------- 0 1.0 5.0 30 30
- 0.150415 3 6 cbr 500 ------- 0 1.0 5.0 30 30
+ 0.150815 6 8 cbr 500 ------- 0 1.0 5.0 10 10
- 0.150815 6 8 cbr 500 ------- 0 1.0 5.0 10 10
r 0.150815 3 6 cbr 500 ------- 0 1.0 5.0 20 20
h 0.150815 6 8 cbr 500 ------- 0 1.0 5.0 20 20
+ 0.151 1 7 cbr 500 ------- 0 1.0 5.0 41 41
- 0.151 1 7 cbr 500 ------- 0 1.0 5.0 41 41
h 0.151 1 7 cbr 500 ------- 0 1.0 5.0 51 51
r 0.151415 7 3 cbr 500 ------- 0 1.0 5.0 31 31
+ 0.151415 3 6 cbr 500 ------- 0 1.0 5.0 31 31
- 0.151415 3 6 cbr 500 ------- 0 1.0 5.0 31 31
+ 0.151815 6 8 cbr 500 ------- 0 1.0 5.0 11 11
- 0.151815 6 8 cbr 500 ------- 0 1.0 5.0 11 11
r 0.151815 3 6 cbr 500 ------- 0 1.0 5.0 21 21
h 0.151815 6 8 cbr 500 ------- 0 1.0 5.0 21 21
+ 0.152 1 7 cbr 500 ------- 0 1.0 5.0 42 42
- 0.152 1 7 cbr 500 ------- 0 1.0 5.0 42 42
h 0.152 1 7 cbr 500 ------- 0 1.0 5.0 52 52
r 0.15223 8 5 cbr 500 ------- 0 1.0 5.0 1 1
r 0.152415 7 3 cbr 500 ------- 0 1.0 5.0 32 32
+ 0.152415 3 6 cbr 500 ------- 0 1.0 5.0 32 32
- 0.152415 3 6 cbr 500 ------- 0 1.0 5.0 32 32
r 0.152815 3 6 cbr 500 ------- 0 1.0 5.0 22 22
h 0.152815 6 8 cbr 500 ------- 0 1.0 5.0 22 22
+ 0.153 1 7 cbr 500 ------- 0 1.0 5.0 43 43
- 0.153 1 7 cbr 500 ------- 0 1.0 5.0 43 43
h 0.153 1 7 cbr 500 ------- 0 1.0 5.0 53 53
r 0.153415 7 3 cbr 500 ------- 0 1.0 5.0 33 33
+ 0.153415 3 6 cbr 500 ------- 0 1.0 5.0 33 33
- 0.153415 3 6 cbr 500 ------- 0 1.0 5.0 33 33
r 0.153815 3 6 cbr 500 ------- 0 1.0 5.0 23 23
h 0.153815 6 8 cbr 500 ------- 0 1.0 5.0 23 23
+ 0.154 1 7 cbr 500 ------- 0 1.0 5.0 44 44
- 0.154 1 7 cbr 500 ------- 0 1.0 5.0 44 44
h 0.154 1 7 cbr 500 ------- 0 1.0 5.0 54 54
r 0.154415 7 3 cbr 500 ------- 0 1.0 5.0 34 34
+ 0.154415 3 6 cbr 500 ------- 0 1.0 5.0 34 34
- 0.154415 3 6 cbr 500 ------- 0 1.0 5.0 34 34
+ 0.154815 6 8 cbr 500 ------- 0 1.0 5.0 14 14
- 0.154815 6 8 cbr 500 ------- 0 1.0 5.0 14 14
r 0.154815 3 6 cbr 500 ------- 0 1.0 5.0 24 24
h 0.154815 6 8 cbr 500 ------- 0 1.0 5.0 24 24
+ 0.155 1 7 cbr 500 ------- 0 1.0 5.0 45 45
- 0.155 1 7 cbr 500 ------- 0 1.0 5.0 45 45
h 0.155 1 7 cbr 500 ------- 0 1.0 5.0 55 55
r 0.15523 8 5 cbr 500 ------- 0 1.0 5.0 4 4
r 0.155415 7 3 cbr 500 ------- 0 1.0 5.0 35 35
+ 0.155415 3 6 cbr 500 ------- 0 1.0 5.0 35 35
- 0.155415 3 6 cbr 500 ------- 0 1.0 5.0 35 35
r 0.155815 3 6 cbr 500 ------- 0 1.0 5.0 25 25
h 0.155815 6 8 cbr 500 ------- 0 1.0 5.0 25 25
+ 0.156 1 7 cbr 500 ------- 0 1.0 5.0 46 46
- 0.156 1 7 cbr 500 ------- 0 1.0 5.0 46 46
h 0.156 1 7 cbr 500 ------- 0 1.0 5.0 56 56
r 0.15623 8 5 cbr 500 ------- 0 1.0 5.0 5 5
r 0.156415 7 3 cbr 500 ------- 0 1.0 5.0 36 36
d 0.156415 3 6 cbr 500 ------- 0 1.0 5.0 36 36
r 0.156815 3 6 cbr 500 ------- 0 1.0 5.0 26 26
h 0.156815 6 8 cbr 500 ------- 0 1.0 5.0 26 26
+ 0.156815 6 8 cbr 500 ------- 0 1.0 5.0 16 16
- 0.156815 6 8 cbr 500 ------- 0 1.0 5.0 16 16
+ 0.157 1 7 cbr 500 ------- 0 1.0 5.0 47 47
- 0.157 1 7 cbr 500 ------- 0 1.0 5.0 47 47
h 0.157 1 7 cbr 500 ------- 0 1.0 5.0 57 57
r 0.15723 8 5 cbr 500 ------- 0 1.0 5.0 6 6
r 0.157415 7 3 cbr 500 ------- 0 1.0 5.0 37 37
+ 0.157415 3 6 cbr 500 ------- 0 1.0 5.0 37 37
- 0.157415 3 6 cbr 500 ------- 0 1.0 5.0 37 37
r 0.157815 3 6 cbr 500 ------- 0 1.0 5.0 27 27
h 0.157815 6 8 cbr 500 ------- 0 1.0 5.0 27 27
+ 0.157815 6 8 cbr 500 ------- 0 1.0 5.0 17 17
- 0.157815 6 8 cbr 500 ------- 0 1.0 5.0 17 17
+ 0.158 1 7 cbr 500 ------- 0 1.0 5.0 48 48
- 0.158 1 7 cbr 500 ------- 0 1.0 5.0 48 48
h 0.158 1 7 cbr 500 ------- 0 1.0 5.0 58 58
r 0.15823 8 5 cbr 500 ------- 0 1.0 5.0 7 7
r 0.158415 7 3 cbr 500 ------- 0 1.0 5.0 38 38
d 0.158415 3 6 cbr 500 ------- 0 1.0 5.0 38 38
r 0.158815 3 6 cbr 500 ------- 0 1.0 5.0 28 28
h 0.158815 6 8 cbr 500 ------- 0 1.0 5.0 28 28
+ 0.159 1 7 cbr 500 ------- 0 1.0 5.0 49 49
- 0.159 1 7 cbr 500 ------- 0 1.0 5.0 49 49
h 0.159 1 7 cbr 500 ------- 0 1.0 5.0 59 59
r 0.15923 8 5 cbr 500 ------- 0 1.0 5.0 8 8
r 0.159415 7 3 cbr 500 ------- 0 1.0 5.0 39 39
+ 0.159415 3 6 cbr 500 ------- 0 1.0 5.0 39 39
- 0.159415 3 6 cbr 500 ------- 0 1.0 5.0 39 39
r 0.159815 3 6 cbr 500 ------- 0 1.0 5.0 29 29
h 0.159815 6 8 cbr 500 ------- 0 1.0 5.0 29 29
+ 0.16 1 7 cbr 500 ------- 0 1.0 5.0 50 50
- 0.16 1 7 cbr 500 ------- 0 1.0 5.0 50 50
h 0.16 1 7 cbr 500 ------- 0 1.0 5.0 60 60
r 0.16023 8 5 cbr 500 ------- 0 1.0 5.0 9 9
r 0.160415 7 3 cbr 500 ------- 0 1.0 5.0 40 40
+ 0.160415 3 6 cbr 500 ------- 0 1.0 5.0 40 40
- 0.160415 3 6 cbr 500 ------- 0 1.0 5.0 40 40
r 0.160815 3 6 cbr 500 ------- 0 1.0 5.0 30 30
h 0.160815 6 8 cbr 500 ------- 0 1.0 5.0 30 30
+ 0.160815 6 8 cbr 500 ------- 0 1.0 5.0 20 20
- 0.160815 6 8 cbr 500 ------- 0 1.0 5.0 20 20
+ 0.161 1 7 cbr 500 ------- 0 1.0 5.0 51 51
- 0.161 1 7 cbr 500 ------- 0 1.0 5.0 51 51
h 0.161 1 7 cbr 500 ------- 0 1.0 5.0 61 61
r 0.16123 8 5 cbr 500 ------- 0 1.0 5.0 10 10
r 0.161415 7 3 cbr 500 ------- 0 1.0 5.0 41 41
+ 0.161415 3 6 cbr 500 ------- 0 1.0 5.0 41 41
- 0.161415 3 6 cbr 500 ------- 0 1.0 5.0 41 41
r 0.161815 3 6 cbr 500 ------- 0 1.0 5.0 31 31
h 0.161815 6 8 cbr 500 ------- 0 1.0 5.0 31 31
+ 0.161815 6 8 cbr 500 ------- 0 1.0 5.0 21 21
- 0.161815 6 8 cbr 500 ------- 0 1.0 5.0 21 21
+ 0.162 1 7 cbr 500 ------- 0 1.0 5.0 52 52
- 0.162 1 7 cbr 500 ------- 0 1.0 5.0 52 52
h 0.162 1 7 cbr 500 ------- 0 1.0 5.0 62 62
r 0.16223 8 5 cbr 500 ------- 0 1.0 5.0 11 11
r 0.162415 7 3 cbr 500 ------- 0 1.0 5.0 42 42
d 0.162415 3 6 cbr 500 ------- 0 1.0 5.0 42 42
r 0.162815 3 6 cbr 500 ------- 0 1.0 5.0 32 32
h 0.162815 6 8 cbr 500 ------- 0 1.0 5.0 32 32
+ 0.162815 6 8 cbr 500 ------- 0 1.0 5.0 22 22
- 0.162815 6 8 cbr 500 ------- 0 1.0 5.0 22 22
+ 0.163 1 7 cbr 500 ------- 0 1.0 5.0 53 53
- 0.163 1 7 cbr 500 ------- 0 1.0 5.0 53 53
h 0.163 1 7 cbr 500 ------- 0 1.0 5.0 63 63
r 0.163415 7 3 cbr 500 ------- 0 1.0 5.0 43 43
d 0.163415 3 6 cbr 500 ------- 0 1.0 5.0 43 43
r 0.163815 3 6 cbr 500 ------- 0 1.0 5.0 33 33
h 0.163815 6 8 cbr 500 ------- 0 1.0 5.0 33 33
+ 0.163815 6 8 cbr 500 ------- 0 1.0 5.0 23 23
- 0.163815 6 8 cbr 500 ------- 0 1.0 5.0 23 23
+ 0.164 1 7 cbr 500 ------- 0 1.0 5.0 54 54
- 0.164 1 7 cbr 500 ------- 0 1.0 5.0 54 54
h 0.164 1 7 cbr 500 ------- 0 1.0 5.0 64 64
r 0.164415 7 3 cbr 500 ------- 0 1.0 5.0 44 44
d 0.164415 3 6 cbr 500 ------- 0 1.0 5.0 44 44
r 0.164815 3 6 cbr 500 ------- 0 1.0 5.0 34 34
h 0.164815 6 8 cbr 500 ------- 0 1.0 5.0 34 34
+ 0.164815 6 8 cbr 500 ------- 0 1.0 5.0 24 24
- 0.164815 6 8 cbr 500 ------- 0 1.0 5.0 24 24
+ 0.165 1 7 cbr 500 ------- 0 1.0 5.0 55 55
- 0.165 1 7 cbr 500 ------- 0 1.0 5.0 55 55
h 0.165 1 7 cbr 500 ------- 0 1.0 5.0 65 65
r 0.16523 8 5 cbr 500 ------- 0 1.0 5.0 14 14
r 0.165415 7 3 cbr 500 ------- 0 1.0 5.0 45 45
+ 0.165415 3 6 cbr 500 ------- 0 1.0 5.0 45 45
- 0.165415 3 6 cbr 500 ------- 0 1.0 5.0 45 45
r 0.165815 3 6 cbr 500 ------- 0 1.0 5.0 35 35
h 0.165815 6 8 cbr 500 ------- 0 1.0 5.0 35 35
+ 0.165815 6 8 cbr 500 ------- 0 1.0 5.0 25 25
- 0.165815 6 8 cbr 500 ------- 0 1.0 5.0 25 25
+ 0.166 1 7 cbr 500 ------- 0 1.0 5.0 56 56
- 0.166 1 7 cbr 500 ------- 0 1.0 5.0 56 56
h 0.166 1 7 cbr 500 ------- 0 1.0 5.0 66 66
r 0.166415 7 3 cbr 500 ------- 0 1.0 5.0 46 46
+ 0.166415 3 6 cbr 500 ------- 0 1.0 5.0 46 46
- 0.166415 3 6 cbr 500 ------- 0 1.0 5.0 46 46
+ 0.166815 6 8 cbr 500 ------- 0 1.0 5.0 26 26
- 0.166815 6 8 cbr 500 ------- 0 1.0 5.0 26 26
+ 0.167 1 7 cbr 500 ------- 0 1.0 5.0 57 57
- 0.167 1 7 cbr 500 ------- 0 1.0 5.0 57 57
h 0.167 1 7 cbr 500 ------- 0 1.0 5.0 67 67
r 0.16723 8 5 cbr 500 ------- 0 1.0 5.0 16 16
r 0.167415 7 3 cbr 500 ------- 0 1.0 5.0 47 47
d 0.167415 3 6 cbr 500 ------- 0 1.0 5.0 47 47
r 0.167815 3 6 cbr 500 ------- 0 1.0 5.0 37 37
h 0.167815 6 8 cbr 500 ------- 0 1.0 5.0 37 37
+ 0.167815 6 8 cbr 500 ------- 0 1.0 5.0 27 27
- 0.167815 6 8 cbr 500 ------- 0 1.0 5.0 27 27
+ 0.168 1 7 cbr 500 ------- 0 1.0 5.0 58 58
- 0.168 1 7 cbr 500 ------- 0 1.0 5.0 58 58
h 0.168 1 7 cbr 500 ------- 0 1.0 5.0 68 68
r 0.16823 8 5 cbr 500 ------- 0 1.0 5.0 17 17
r 0.168415 7 3 cbr 500 ------- 0 1.0 5.0 48 48
+ 0.168415 3 6 cbr 500 ------- 0 1.0 5.0 48 48
- 0.168415 3 6 cbr 500 ------- 0 1.0 5.0 48 48
+ 0.168815 6 8 cbr 500 ------- 0 1.0 5.0 28 28
- 0.168815 6 8 cbr 500 ------- 0 1.0 5.0 28 28
+ 0.169 1 7 cbr 500 ------- 0 1.0 5.0 59 59
- 0.169 1 7 cbr 500 ------- 0 1.0 5.0 59 59
h 0.169 1 7 cbr 500 ------- 0 1.0 5.0 69 69
r 0.169415 7 3 cbr 500 ------- 0 1.0 5.0 49 49
+ 0.169415 3 6 cbr 500 ------- 0 1.0 5.0 49 49
- 0.169415 3 6 cbr 500 ------- 0 1.0 5.0 49 49
r 0.169815 3 6 cbr 500 ------- 0 1.0 5.0 39 39
h 0.169815 6 8 cbr 500 ------- 0 1.0 5.0 39 39
+ 0.169815 6 8 cbr 500 ------- 0 1.0 5.0 29 29
- 0.169815 6 8 cbr 500 ------- 0 1.0 5.0 29 29
+ 0.17 1 7 cbr 500 ------- 0 1.0 5.0 60 60
- 0.17 1 7 cbr 500 ------- 0 1.0 5.0 60 60
h 0.17 1 7 cbr 500 ------- 0 1.0 5.0 70 70
r 0.170415 7 3 cbr 500 ------- 0 1.0 5.0 50 50
+ 0.170415 3 6 cbr 500 ------- 0 1.0 5.0 50 50
- 0.170415 3 6 cbr 500 ------- 0 1.0 5.0 50 50
r 0.170815 3 6 cbr 500 ------- 0 1.0 5.0 40 40
h 0.170815 6 8 cbr 500 ------- 0 1.0 5.0 40 40
+ 0.170815 6 8 cbr 500 ------- 0 1.0 5.0 30 30
- 0.170815 6 8 cbr 500 ------- 0 1.0 5.0 30 30
+ 0.171 1 7 cbr 500 ------- 0 1.0 5.0 61 61
- 0.171 1 7 cbr 500 ------- 0 1.0 5.0 61 61
h 0.171 1 7 cbr 500 ------- 0 1.0 5.0 71 71
r 0.17123 8 5 cbr 500 ------- 0 1.0 5.0 20 20
r 0.171415 7 3 cbr 500 ------- 0 1.0 5.0 51 51
+ 0.171415 3 6 cbr 500 ------- 0 1.0 5.0 51 51
- 0.171415 3 6 cbr 500 ------- 0 1.0 5.0 51 51
r 0.171815 3 6 cbr 500 ------- 0 1.0 5.0 41 41
h 0.171815 6 8 cbr 500 ------- 0 1.0 5.0 41 41
+ 0.171815 6 8 cbr 500 ------- 0 1.0 5.0 31 31
- 0.171815 6 8 cbr 500 ------- 0 1.0 5.0 31 31
+ 0.172 1 7 cbr 500 ------- 0 1.0 5.0 62 62
- 0.172 1 7 cbr 500 ------- 0 1.0 5.0 62 62
h 0.172 1 7 cbr 500 ------- 0 1.0 5.0 72 72
r 0.17223 8 5 cbr 500 ------- 0 1.0 5.0 21 21
r 0.172415 7 3 cbr 500 ------- 0 1.0 5.0 52 52
+ 0.172415 3 6 cbr 500 ------- 0 1.0 5.0 52 52
- 0.172415 3 6 cbr 500 ------- 0 1.0 5.0 52 52
+ 0.172815 6 8 cbr 500 ------- 0 1.0 5.0 32 32
- 0.172815 6 8 cbr 500 ------- 0 1.0 5.0 32 32
+ 0.173 1 7 cbr 500 ------- 0 1.0 5.0 63 63
- 0.173 1 7 cbr 500 ------- 0 1.0 5.0 63 63
h 0.173 1 7 cbr 500 ------- 0 1.0 5.0 73 73
r 0.17323 8 5 cbr 500 ------- 0 1.0 5.0 22 22
r 0.173415 7 3 cbr 500 ------- 0 1.0 5.0 53 53
+ 0.173415 3 6 cbr 500 ------- 0 1.0 5.0 53 53
- 0.173415 3 6 cbr 500 ------- 0 1.0 5.0 53 53
+ 0.173815 6 8 cbr 500 ------- 0 1.0 5.0 33 33
- 0.173815 6 8 cbr 500 ------- 0 1.0 5.0 33 33
+ 0.174 1 7 cbr 500 ------- 0 1.0 5.0 64 64
- 0.174 1 7 cbr 500 ------- 0 1.0 5.0 64 64
h 0.174 1 7 cbr 500 ------- 0 1.0 5.0 74 74
r 0.17423 8 5 cbr 500 ------- 0 1.0 5.0 23 23
r 0.174415 7 3 cbr 500 ------- 0 1.0 5.0 54 54
+ 0.174415 3 6 cbr 500 ------- 0 1.0 5.0 54 54
- 0.174415 3 6 cbr 500 ------- 0 1.0 5.0 54 54
+ 0.174815 6 8 cbr 500 ------- 0 1.0 5.0 34 34
- 0.174815 6 8 cbr 500 ------- 0 1.0 5.0 34 34
+ 0.175 1 7 cbr 500 ------- 0 1.0 5.0 65 65
- 0.175 1 7 cbr 500 ------- 0 1.0 5.0 65 65
h 0.175 1 7 cbr 500 ------- 0 1.0 5.0 75 75
r 0.17523 8 5 cbr 500 ------- 0 1.0 5.0 24 24
r 0.175415 7 3 cbr 500 ------- 0 1.0 5.0 55 55
+ 0.175415 3 6 cbr 500 ------- 0 1.0 5.0 55 55
- 0.175415 3 6 cbr 500 ------- 0 1.0 5.0 55 55
r 0.175815 3 6 cbr 500 ------- 0 1.0 5.0 45 45
h 0.175815 6 8 cbr 500 ------- 0 1.0 5.0 45 45
+ 0.175815 6 8 cbr 500 ------- 0 1.0 5.0 35 35
- 0.175815 6 8 cbr 500 ------- 0 1.0 5.0 35 35
+ 0.176 1 7 cbr 500 ------- 0 1.0 5.0 66 66
- 0.176 1 7 cbr 500 ------- 0 1.0 5.0 66 66
h 0.176 1 7 cbr 500 ------- 0 1.0 5.0 76 76
r 0.17623 8 5 cbr 500 ------- 0 1.0 5.0 25 25
r 0.176415 7 3 cbr 500 ------- 0 1.0 5.0 56 56
d 0.176415 3 6 cbr 500 ------- 0 1.0 5.0 56 56
r 0.176815 3 6 cbr 500 ------- 0 1.0 5.0 46 46
h 0.176815 6 8 cbr 500 ------- 0 1.0 5.0 46 46
+ 0.177 1 7 cbr 500 ------- 0 1.0 5.0 67 67
- 0.177 1 7 cbr 500 ------- 0 1.0 5.0 67 67
h 0.177 1 7 cbr 500 ------- 0 1.0 5.0 77 77
r 0.17723 8 5 cbr 500 ------- 0 1.0 5.0 26 26
r 0.177415 7 3 cbr 500 ------- 0 1.0 5.0 57 57
+ 0.177415 3 6 cbr 500 ------- 0 1.0 5.0 57 57
- 0.177415 3 6 cbr 500 ------- 0 1.0 5.0 57 57
+ 0.177815 6 8 cbr 500 ------- 0 1.0 5.0 37 37
- 0.177815 6 8 cbr 500 ------- 0 1.0 5.0 37 37
+ 0.178 1 7 cbr 500 ------- 0 1.0 5.0 68 68
- 0.178 1 7 cbr 500 ------- 0 1.0 5.0 68 68
h 0.178 1 7 cbr 500 ------- 0 1.0 5.0 78 78
r 0.17823 8 5 cbr 500 ------- 0 1.0 5.0 27 27
r 0.178415 7 3 cbr 500 ------- 0 1.0 5.0 58 58
d 0.178415 3 6 cbr 500 ------- 0 1.0 5.0 58 58
r 0.178815 3 6 cbr 500 ------- 0 1.0 5.0 48 48
h 0.178815 6 8 cbr 500 ------- 0 1.0 5.0 48 48
+ 0.179 1 7 cbr 500 ------- 0 1.0 5.0 69 69
- 0.179 1 7 cbr 500 ------- 0 1.0 5.0 69 69
h 0.179 1 7 cbr 500 ------- 0 1.0 5.0 79 79
r 0.17923 8 5 cbr 500 ------- 0 1.0 5.0 28 28
r 0.179415 7 3 cbr 500 ------- 0 1.0 5.0 59 59
+ 0.179415 3 6 cbr 500 ------- 0 1.0 5.0 59 59
- 0.179415 3 6 cbr 500 ------- 0 1.0 5.0 59 59
r 0.179815 3 6 cbr 500 ------- 0 1.0 5.0 49 49
h 0.179815 6 8 cbr 500 ------- 0 1.0 5.0 49 49
+ 0.179815 6 8 cbr 500 ------- 0 1.0 5.0 39 39
- 0.179815 6 8 cbr 500 ------- 0 1.0 5.0 39 39
+ 0.18 1 7 cbr 500 ------- 0 1.0 5.0 70 70
- 0.18 1 7 cbr 500 ------- 0 1.0 5.0 70 70
h 0.18 1 7 cbr 500 ------- 0 1.0 5.0 80 80
r 0.18023 8 5 cbr 500 ------- 0 1.0 5.0 29 29
r 0.180415 7 3 cbr 500 ------- 0 1.0 5.0 60 60
+ 0.180415 3 6 cbr 500 ------- 0 1.0 5.0 60 60
- 0.180415 3 6 cbr 500 ------- 0 1.0 5.0 60 60
r 0.180815 3 6 cbr 500 ------- 0 1.0 5.0 50 50
h 0.180815 6 8 cbr 500 ------- 0 1.0 5.0 50 50
+ 0.180815 6 8 cbr 500 ------- 0 1.0 5.0 40 40
- 0.180815 6 8 cbr 500 ------- 0 1.0 5.0 40 40
+ 0.181 1 7 cbr 500 ------- 0 1.0 5.0 71 71
- 0.181 1 7 cbr 500 ------- 0 1.0 5.0 71 71
h 0.181 1 7 cbr 500 ------- 0 1.0 5.0 81 81
r 0.18123 8 5 cbr 500 ------- 0 1.0 5.0 30 30
r 0.181415 7 3 cbr 500 ------- 0 1.0 5.0 61 61
+ 0.181415 3 6 cbr 500 ------- 0 1.0 5.0 61 61
- 0.181415 3 6 cbr 500 ------- 0 1.0 5.0 61 61
r 0.181815 3 6 cbr 500 ------- 0 1.0 5.0 51 51
h 0.181815 6 8 cbr 500 ------- 0 1.0 5.0 51 51
+ 0.181815 6 8 cbr 500 ------- 0 1.0 5.0 41 41
- 0.181815 6 8 cbr 500 ------- 0 1.0 5.0 41 41
+ 0.182 1 7 cbr 500 ------- 0 1.0 5.0 72 72
- 0.182 1 7 cbr 500 ------- 0 1.0 5.0 72 72
h 0.182 1 7 cbr 500 ------- 0 1.0 5.0 82 82
r 0.18223 8 5 cbr 500 ------- 0 1.0 5.0 31 31
r 0.182415 7 3 cbr 500 ------- 0 1.0 5.0 62 62
+ 0.182415 3 6 cbr 500 ------- 0 1.0 5.0 62 62
- 0.182415 3 6 cbr 500 ------- 0 1.0 5.0 62 62
r 0.182815 3 6 cbr 500 ------- 0 1.0 5.0 52 52
h 0.182815 6 8 cbr 500 ------- 0 1.0 5.0 52 52
+ 0.183 1 7 cbr 500 ------- 0 1.0 5.0 73 73
- 0.183 1 7 cbr 500 ------- 0 1.0 5.0 73 73
h 0.183 1 7 cbr 500 ------- 0 1.0 5.0 83 83
r 0.18323 8 5 cbr 500 ------- 0 1.0 5.0 32 32
r 0.183415 7 3 cbr 500 ------- 0 1.0 5.0 63 63
+ 0.183415 3 6 cbr 500 ------- 0 1.0 5.0 63 63
- 0.183415 3 6 cbr 500 ------- 0 1.0 5.0 63 63
r 0.183815 3 6 cbr 500 ------- 0 1.0 5.0 53 53
h 0.183815 6 8 cbr 500 ------- 0 1.0 5.0 53 53
+ 0.184 1 7 cbr 500 ------- 0 1.0 5.0 74 74
- 0.184 1 7 cbr 500 ------- 0 1.0 5.0 74 74
h 0.184 1 7 cbr 500 ------- 0 1.0 5.0 84 84
r 0.18423 8 5 cbr 500 ------- 0 1.0 5.0 33 33
r 0.184415 7 3 cbr 500 ------- 0 1.0 5.0 64 64
d 0.184415 3 6 cbr 500 ------- 0 1.0 5.0 64 64
r 0.184815 3 6 cbr 500 ------- 0 1.0 5.0 54 54
h 0.184815 6 8 cbr 500 ------- 0 1.0 5.0 54 54
+ 0.185 1 7 cbr 500 ------- 0 1.0 5.0 75 75
- 0.185 1 7 cbr 500 ------- 0 1.0 5.0 75 75
h 0.185 1 7 cbr 500 ------- 0 1.0 5.0 85 85
r 0.18523 8 5 cbr 500 ------- 0 1.0 5.0 34 34
r 0.185415 7 3 cbr 500 ------- 0 1.0 5.0 65 65
+ 0.185415 3 6 cbr 500 ------- 0 1.0 5.0 65 65
- 0.185415 3 6 cbr 500 ------- 0 1.0 5.0 65 65
r 0.185815 3 6 cbr 500 ------- 0 1.0 5.0 55 55
h 0.185815 6 8 cbr 500 ------- 0 1.0 5.0 55 55
+ 0.185815 6 8 cbr 500 ------- 0 1.0 5.0 45 45
- 0.185815 6 8 cbr 500 ------- 0 1.0 5.0 45 45
+ 0.186 1 7 cbr 500 ------- 0 1.0 5.0 76 76
- 0.186 1 7 cbr 500 ------- 0 1.0 5.0 76 76
h 0.186 1 7 cbr 500 ------- 0 1.0 5.0 86 86
r 0.18623 8 5 cbr 500 ------- 0 1.0 5.0 35 35
r 0.186415 7 3 cbr 500 ------- 0 1.0 5.0 66 66
d 0.186415 3 6 cbr 500 ------- 0 1.0 5.0 66 66
+ 0.186815 6 8 cbr 500 ------- 0 1.0 5.0 46 46
- 0.186815 6 8 cbr 500 ------- 0 1.0 5.0 46 46
+ 0.187 1 7 cbr 500 ------- 0 1.0 5.0 77 77
- 0.187 1 7 cbr 500 ------- 0 1.0 5.0 77 77
h 0.187 1 7 cbr 500 ------- 0 1.0 5.0 87 87
r 0.187415 7 3 cbr 500 ------- 0 1.0 5.0 67 67
+ 0.187415 3 6 cbr 500 ------- 0 1.0 5.0 67 67
- 0.187415 3 6 cbr 500 ------- 0 1.0 5.0 67 67
r 0.187815 3 6 cbr 500 ------- 0 1.0 5.0 57 57
h 0.187815 6 8 cbr 500 ------- 0 1.0 5.0 57 57
+ 0.188 1 7 cbr 500 ------- 0 1.0 5.0 78 78
- 0.188 1 7 cbr 500 ------- 0 1.0 5.0 78 78
h 0.188 1 7 cbr 500 ------- 0 1.0 5.0 88 88
r 0.18823 8 5 cbr 500 ------- 0 1.0 5.0 37 37
r 0.188415 7 3 cbr 500 ------- 0 1.0 5.0 68 68
d 0.188415 3 6 cbr 500 ------- 0 1.0 5.0 68 68
+ 0.188815 6 8 cbr 500 ------- 0 1.0 5.0 48 48
- 0.188815 6 8 cbr 500 ------- 0 1.0 5.0 48 48
+ 0.189 1 7 cbr 500 ------- 0 1.0 5.0 79 79
- 0.189 1 7 cbr 500 ------- 0 1.0 5.0 79 79
h 0.189 1 7 cbr 500 ------- 0 1.0 5.0 89 89
r 0.189415 7 3 cbr 500 ------- 0 1.0 5.0 69 69
+ 0.189415 3 6 cbr 500 ------- 0 1.0 5.0 69 69
- 0.189415 3 6 cbr 500 ------- 0 1.0 5.0 69 69
r 0.189815 3 6 cbr 500 ------- 0 1.0 5.0 59 59
h 0.189815 6 8 cbr 500 ------- 0 1.0 5.0 59 59
+ 0.189815 6 8 cbr 500 ------- 0 1.0 5.0 49 49
- 0.189815 6 8 cbr 500 ------- 0 1.0 5.0 49 49
+ 0.19 1 7 cbr 500 ------- 0 1.0 5.0 80 80
- 0.19 1 7 cbr 500 ------- 0 1.0 5.0 80 80
h 0.19 1 7 cbr 500 ------- 0 1.0 5.0 90 90
r 0.19023 8 5 cbr 500 ------- 0 1.0 5.0 39 39
r 0.190415 7 3 cbr 500 ------- 0 1.0 5.0 70 70
+ 0.190415 3 6 cbr 500 ------- 0 1.0 5.0 70 70
- 0.190415 3 6 cbr 500 ------- 0 1.0 5.0 70 70
r 0.190815 3 6 cbr 500 ------- 0 1.0 5.0 60 60
h 0.190815 6 8 cbr 500 ------- 0 1.0 5.0 60 60
+ 0.190815 6 8 cbr 500 ------- 0 1.0 5.0 50 50
- 0.190815 6 8 cbr 500 ------- 0 1.0 5.0 50 50
+ 0.191 1 7 cbr 500 ------- 0 1.0 5.0 81 81
- 0.191 1 7 cbr 500 ------- 0 1.0 5.0 81 81
h 0.191 1 7 cbr 500 ------- 0 1.0 5.0 91 91
r 0.19123 8 5 cbr 500 ------- 0 1.0 5.0 40 40
r 0.191415 7 3 cbr 500 ------- 0 1.0 5.0 71 71
+ 0.191415 3 6 cbr 500 ------- 0 1.0 5.0 71 71
- 0.191415 3 6 cbr 500 ------- 0 1.0 5.0 71 71
r 0.191815 3 6 cbr 500 ------- 0 1.0 5.0 61 61
h 0.191815 6 8 cbr 500 ------- 0 1.0 5.0 61 61
+ 0.191815 6 8 cbr 500 ------- 0 1.0 5.0 51 51
- 0.191815 6 8 cbr 500 ------- 0 1.0 5.0 51 51
+ 0.192 1 7 cbr 500 ------- 0 1.0 5.0 82 82
- 0.192 1 7 cbr 500 ------- 0 1.0 5.0 82 82
h 0.192 1 7 cbr 500 ------- 0 1.0 5.0 92 92
r 0.19223 8 5 cbr 500 ------- 0 1.0 5.0 41 41
r 0.192415 7 3 cbr 500 ------- 0 1.0 5.0 72 72
+ 0.192415 3 6 cbr 500 ------- 0 1.0 5.0 72 72
- 0.192415 3 6 cbr 500 ------- 0 1.0 5.0 72 72
r 0.192815 3 6 cbr 500 ------- 0 1.0 5.0 62 62