+ 0.1 0 1 ping 64 ------- 0 0.0 2.0 -1 0
- 0.1 0 1 ping 64 ------- 0 0.0 2.0 -1 0
+ 0.1 3 1 ping 64 ------- 0 3.0 4.0 -1 1
- 0.1 3 1 ping 64 ------- 0 3.0 4.0 -1 1
+ 0.2 0 1 ping 64 ------- 0 0.0 2.0 -1 2
- 0.2 0 1 ping 64 ------- 0 0.0 2.0 -1 2
+ 0.2 3 1 ping 64 ------- 0 3.0 4.0 -1 3
- 0.2 3 1 ping 64 ------- 0 3.0 4.0 -1 3
+ 0.3 0 1 ping 64 ------- 0 0.0 2.0 -1 4
- 0.3 0 1 ping 64 ------- 0 0.0 2.0 -1 4
+ 0.3 3 1 ping 64 ------- 0 3.0 4.0 -1 5
- 0.3 3 1 ping 64 ------- 0 3.0 4.0 -1 5
+ 0.4 0 1 ping 64 ------- 0 0.0 2.0 -1 6
- 0.4 0 1 ping 64 ------- 0 0.0 2.0 -1 6
+ 0.4 3 1 ping 64 ------- 0 3.0 4.0 -1 7
- 0.4 3 1 ping 64 ------- 0 3.0 4.0 -1 7
r 0.400005 0 1 ping 64 ------- 0 0.0 2.0 -1 0
+ 0.400005 1 2 ping 64 ------- 0 0.0 2.0 -1 0
- 0.400005 1 2 ping 64 ------- 0 0.0 2.0 -1 0
r 0.400005 3 1 ping 64 ------- 0 3.0 4.0 -1 1
+ 0.400005 1 4 ping 64 ------- 0 3.0 4.0 -1 1
- 0.400005 1 4 ping 64 ------- 0 3.0 4.0 -1 1
+ 0.5 0 1 ping 64 ------- 0 0.0 2.0 -1 8
- 0.5 0 1 ping 64 ------- 0 0.0 2.0 -1 8
+ 0.5 3 1 ping 64 ------- 0 3.0 4.0 -1 9
- 0.5 3 1 ping 64 ------- 0 3.0 4.0 -1 9
r 0.500005 0 1 ping 64 ------- 0 0.0 2.0 -1 2
+ 0.500005 1 2 ping 64 ------- 0 0.0 2.0 -1 2
- 0.500005 1 2 ping 64 ------- 0 0.0 2.0 -1 2
r 0.500005 3 1 ping 64 ------- 0 3.0 4.0 -1 3
+ 0.500005 1 4 ping 64 ------- 0 3.0 4.0 -1 3
- 0.500005 1 4 ping 64 ------- 0 3.0 4.0 -1 3
+ 0.6 0 1 ping 64 ------- 0 0.0 2.0 -1 10
- 0.6 0 1 ping 64 ------- 0 0.0 2.0 -1 10
+ 0.6 3 1 ping 64 ------- 0 3.0 4.0 -1 11
- 0.6 3 1 ping 64 ------- 0 3.0 4.0 -1 11
r 0.600005 0 1 ping 64 ------- 0 0.0 2.0 -1 4
+ 0.600005 1 2 ping 64 ------- 0 0.0 2.0 -1 4
- 0.600005 1 2 ping 64 ------- 0 0.0 2.0 -1 4
r 0.600005 3 1 ping 64 ------- 0 3.0 4.0 -1 5
+ 0.600005 1 4 ping 64 ------- 0 3.0 4.0 -1 5
- 0.600005 1 4 ping 64 ------- 0 3.0 4.0 -1 5
+ 0.7 0 1 ping 64 ------- 0 0.0 2.0 -1 12
- 0.7 0 1 ping 64 ------- 0 0.0 2.0 -1 12
+ 0.7 3 1 ping 64 ------- 0 3.0 4.0 -1 13
- 0.7 3 1 ping 64 ------- 0 3.0 4.0 -1 13
r 0.700005 0 1 ping 64 ------- 0 0.0 2.0 -1 6
+ 0.700005 1 2 ping 64 ------- 0 0.0 2.0 -1 6
- 0.700005 1 2 ping 64 ------- 0 0.0 2.0 -1 6
r 0.700005 3 1 ping 64 ------- 0 3.0 4.0 -1 7
+ 0.700005 1 4 ping 64 ------- 0 3.0 4.0 -1 7
- 0.700005 1 4 ping 64 ------- 0 3.0 4.0 -1 7
r 0.700517 1 2 ping 64 ------- 0 0.0 2.0 -1 0
+ 0.700517 2 1 ping 64 ------- 0 2.0 0.0 -1 14
- 0.700517 2 1 ping 64 ------- 0 2.0 0.0 -1 14
r 0.700517 1 4 ping 64 ------- 0 3.0 4.0 -1 1
+ 0.700517 4 1 ping 64 ------- 0 4.0 3.0 -1 15
- 0.700517 4 1 ping 64 ------- 0 4.0 3.0 -1 15
+ 0.8 0 1 ping 64 ------- 0 0.0 2.0 -1 16
- 0.8 0 1 ping 64 ------- 0 0.0 2.0 -1 16
+ 0.8 3 1 ping 64 ------- 0 3.0 4.0 -1 17
- 0.8 3 1 ping 64 ------- 0 3.0 4.0 -1 17
r 0.800005 0 1 ping 64 ------- 0 0.0 2.0 -1 8
+ 0.800005 1 2 ping 64 ------- 0 0.0 2.0 -1 8
- 0.800005 1 2 ping 64 ------- 0 0.0 2.0 -1 8
r 0.800005 3 1 ping 64 ------- 0 3.0 4.0 -1 9
+ 0.800005 1 4 ping 64 ------- 0 3.0 4.0 -1 9
- 0.800005 1 4 ping 64 ------- 0 3.0 4.0 -1 9
r 0.800517 1 2 ping 64 ------- 0 0.0 2.0 -1 2
+ 0.800517 2 1 ping 64 ------- 0 2.0 0.0 -1 18
- 0.800517 2 1 ping 64 ------- 0 2.0 0.0 -1 18
r 0.800517 1 4 ping 64 ------- 0 3.0 4.0 -1 3
+ 0.800517 4 1 ping 64 ------- 0 4.0 3.0 -1 19
- 0.800517 4 1 ping 64 ------- 0 4.0 3.0 -1 19
+ 0.9 0 1 ping 64 ------- 0 0.0 2.0 -1 20
- 0.9 0 1 ping 64 ------- 0 0.0 2.0 -1 20
+ 0.9 3 1 ping 64 ------- 0 3.0 4.0 -1 21
- 0.9 3 1 ping 64 ------- 0 3.0 4.0 -1 21
d 0.9 4 1 ping 64 ------- 0 4.0 3.0 -1 15
d 0.9 4 1 ping 64 ------- 0 4.0 3.0 -1 19
v 0.90000000000000002 link-down 4 1
v 0.90000000000000002 link-down 4 1
d 0.9 1 4 ping 64 ------- 0 3.0 4.0 -1 5
d 0.9 1 4 ping 64 ------- 0 3.0 4.0 -1 7
d 0.9 1 4 ping 64 ------- 0 3.0 4.0 -1 9
v 0.90000000000000002 link-down 1 4
v 0.90000000000000002 link-down 1 4
r 0.900005 0 1 ping 64 ------- 0 0.0 2.0 -1 10
+ 0.900005 1 2 ping 64 ------- 0 0.0 2.0 -1 10
- 0.900005 1 2 ping 64 ------- 0 0.0 2.0 -1 10
r 0.900005 3 1 ping 64 ------- 0 3.0 4.0 -1 11
r 0.900517 1 2 ping 64 ------- 0 0.0 2.0 -1 4
+ 0.900517 2 1 ping 64 ------- 0 2.0 0.0 -1 22
- 0.900517 2 1 ping 64 ------- 0 2.0 0.0 -1 22
+ 1 0 1 ping 64 ------- 0 0.0 2.0 -1 23
- 1 0 1 ping 64 ------- 0 0.0 2.0 -1 23
+ 1 3 1 ping 64 ------- 0 3.0 4.0 -1 24
- 1 3 1 ping 64 ------- 0 3.0 4.0 -1 24
r 1.000005 0 1 ping 64 ------- 0 0.0 2.0 -1 12
+ 1.000005 1 2 ping 64 ------- 0 0.0 2.0 -1 12
- 1.000005 1 2 ping 64 ------- 0 0.0 2.0 -1 12
r 1.000005 3 1 ping 64 ------- 0 3.0 4.0 -1 13
r 1.000517 1 2 ping 64 ------- 0 0.0 2.0 -1 6
+ 1.000517 2 1 ping 64 ------- 0 2.0 0.0 -1 25
- 1.000517 2 1 ping 64 ------- 0 2.0 0.0 -1 25
r 1.001029 2 1 ping 64 ------- 0 2.0 0.0 -1 14
+ 1.001029 1 0 ping 64 ------- 0 2.0 0.0 -1 14
- 1.001029 1 0 ping 64 ------- 0 2.0 0.0 -1 14
+ 1.1 0 1 ping 64 ------- 0 0.0 2.0 -1 26
- 1.1 0 1 ping 64 ------- 0 0.0 2.0 -1 26
+ 1.1 3 1 ping 64 ------- 0 3.0 4.0 -1 27
- 1.1 3 1 ping 64 ------- 0 3.0 4.0 -1 27
r 1.100005 0 1 ping 64 ------- 0 0.0 2.0 -1 16
+ 1.100005 1 2 ping 64 ------- 0 0.0 2.0 -1 16
- 1.100005 1 2 ping 64 ------- 0 0.0 2.0 -1 16
r 1.100005 3 1 ping 64 ------- 0 3.0 4.0 -1 17
r 1.100517 1 2 ping 64 ------- 0 0.0 2.0 -1 8
+ 1.100517 2 1 ping 64 ------- 0 2.0 0.0 -1 28
- 1.100517 2 1 ping 64 ------- 0 2.0 0.0 -1 28
r 1.101029 2 1 ping 64 ------- 0 2.0 0.0 -1 18
+ 1.101029 1 0 ping 64 ------- 0 2.0 0.0 -1 18
- 1.101029 1 0 ping 64 ------- 0 2.0 0.0 -1 18
+ 1.2 0 1 ping 64 ------- 0 0.0 2.0 -1 29
- 1.2 0 1 ping 64 ------- 0 0.0 2.0 -1 29
+ 1.2 3 1 ping 64 ------- 0 3.0 4.0 -1 30
- 1.2 3 1 ping 64 ------- 0 3.0 4.0 -1 30
r 1.200005 0 1 ping 64 ------- 0 0.0 2.0 -1 20
+ 1.200005 1 2 ping 64 ------- 0 0.0 2.0 -1 20
- 1.200005 1 2 ping 64 ------- 0 0.0 2.0 -1 20
r 1.200005 3 1 ping 64 ------- 0 3.0 4.0 -1 21
r 1.200517 1 2 ping 64 ------- 0 0.0 2.0 -1 10
+ 1.200517 2 1 ping 64 ------- 0 2.0 0.0 -1 31
- 1.200517 2 1 ping 64 ------- 0 2.0 0.0 -1 31
r 1.201029 2 1 ping 64 ------- 0 2.0 0.0 -1 22
+ 1.201029 1 0 ping 64 ------- 0 2.0 0.0 -1 22
- 1.201029 1 0 ping 64 ------- 0 2.0 0.0 -1 22
+ 1.3 0 1 ping 64 ------- 0 0.0 2.0 -1 32
- 1.3 0 1 ping 64 ------- 0 0.0 2.0 -1 32
+ 1.3 3 1 ping 64 ------- 0 3.0 4.0 -1 33
- 1.3 3 1 ping 64 ------- 0 3.0 4.0 -1 33
r 1.300005 0 1 ping 64 ------- 0 0.0 2.0 -1 23
+ 1.300005 1 2 ping 64 ------- 0 0.0 2.0 -1 23
- 1.300005 1 2 ping 64 ------- 0 0.0 2.0 -1 23
r 1.300005 3 1 ping 64 ------- 0 3.0 4.0 -1 24
r 1.300517 1 2 ping 64 ------- 0 0.0 2.0 -1 12
+ 1.300517 2 1 ping 64 ------- 0 2.0 0.0 -1 34
- 1.300517 2 1 ping 64 ------- 0 2.0 0.0 -1 34
r 1.301029 2 1 ping 64 ------- 0 2.0 0.0 -1 25
+ 1.301029 1 0 ping 64 ------- 0 2.0 0.0 -1 25
- 1.301029 1 0 ping 64 ------- 0 2.0 0.0 -1 25
r 1.301034 1 0 ping 64 ------- 0 2.0 0.0 -1 14
+ 1.4 0 1 ping 64 ------- 0 0.0 2.0 -1 35
- 1.4 0 1 ping 64 ------- 0 0.0 2.0 -1 35
+ 1.4 3 1 ping 64 ------- 0 3.0 4.0 -1 36
- 1.4 3 1 ping 64 ------- 0 3.0 4.0 -1 36
r 1.400005 0 1 ping 64 ------- 0 0.0 2.0 -1 26
+ 1.400005 1 2 ping 64 ------- 0 0.0 2.0 -1 26
- 1.400005 1 2 ping 64 ------- 0 0.0 2.0 -1 26
r 1.400005 3 1 ping 64 ------- 0 3.0 4.0 -1 27
r 1.400517 1 2 ping 64 ------- 0 0.0 2.0 -1 16
+ 1.400517 2 1 ping 64 ------- 0 2.0 0.0 -1 37
- 1.400517 2 1 ping 64 ------- 0 2.0 0.0 -1 37
r 1.401029 2 1 ping 64 ------- 0 2.0 0.0 -1 28
+ 1.401029 1 0 ping 64 ------- 0 2.0 0.0 -1 28
- 1.401029 1 0 ping 64 ------- 0 2.0 0.0 -1 28
r 1.401034 1 0 ping 64 ------- 0 2.0 0.0 -1 18
+ 1.5 0 1 ping 64 ------- 0 0.0 2.0 -1 38
- 1.5 0 1 ping 64 ------- 0 0.0 2.0 -1 38
+ 1.5 3 1 ping 64 ------- 0 3.0 4.0 -1 39
- 1.5 3 1 ping 64 ------- 0 3.0 4.0 -1 39
r 1.500005 0 1 ping 64 ------- 0 0.0 2.0 -1 29
+ 1.500005 1 2 ping 64 ------- 0 0.0 2.0 -1 29
- 1.500005 1 2 ping 64 ------- 0 0.0 2.0 -1 29
r 1.500005 3 1 ping 64 ------- 0 3.0 4.0 -1 30
r 1.500517 1 2 ping 64 ------- 0 0.0 2.0 -1 20
+ 1.500517 2 1 ping 64 ------- 0 2.0 0.0 -1 40
- 1.500517 2 1 ping 64 ------- 0 2.0 0.0 -1 40
r 1.501029 2 1 ping 64 ------- 0 2.0 0.0 -1 31
+ 1.501029 1 0 ping 64 ------- 0 2.0 0.0 -1 31
- 1.501029 1 0 ping 64 ------- 0 2.0 0.0 -1 31
r 1.501034 1 0 ping 64 ------- 0 2.0 0.0 -1 22
+ 1.6 0 1 ping 64 ------- 0 0.0 2.0 -1 41
- 1.6 0 1 ping 64 ------- 0 0.0 2.0 -1 41
+ 1.6 3 1 ping 64 ------- 0 3.0 4.0 -1 42
- 1.6 3 1 ping 64 ------- 0 3.0 4.0 -1 42
r 1.600005 0 1 ping 64 ------- 0 0.0 2.0 -1 32
+ 1.600005 1 2 ping 64 ------- 0 0.0 2.0 -1 32
- 1.600005 1 2 ping 64 ------- 0 0.0 2.0 -1 32
r 1.600005 3 1 ping 64 ------- 0 3.0 4.0 -1 33
r 1.600517 1 2 ping 64 ------- 0 0.0 2.0 -1 23
+ 1.600517 2 1 ping 64 ------- 0 2.0 0.0 -1 43
- 1.600517 2 1 ping 64 ------- 0 2.0 0.0 -1 43
r 1.601029 2 1 ping 64 ------- 0 2.0 0.0 -1 34
+ 1.601029 1 0 ping 64 ------- 0 2.0 0.0 -1 34
- 1.601029 1 0 ping 64 ------- 0 2.0 0.0 -1 34
r 1.601034 1 0 ping 64 ------- 0 2.0 0.0 -1 25
+ 1.7 0 1 ping 64 ------- 0 0.0 2.0 -1 44
- 1.7 0 1 ping 64 ------- 0 0.0 2.0 -1 44
+ 1.7 3 1 ping 64 ------- 0 3.0 4.0 -1 45
- 1.7 3 1 ping 64 ------- 0 3.0 4.0 -1 45
r 1.700005 0 1 ping 64 ------- 0 0.0 2.0 -1 35
+ 1.700005 1 2 ping 64 ------- 0 0.0 2.0 -1 35
- 1.700005 1 2 ping 64 ------- 0 0.0 2.0 -1 35
r 1.700005 3 1 ping 64 ------- 0 3.0 4.0 -1 36
r 1.700517 1 2 ping 64 ------- 0 0.0 2.0 -1 26
+ 1.700517 2 1 ping 64 ------- 0 2.0 0.0 -1 46
- 1.700517 2 1 ping 64 ------- 0 2.0 0.0 -1 46
r 1.701029 2 1 ping 64 ------- 0 2.0 0.0 -1 37
+ 1.701029 1 0 ping 64 ------- 0 2.0 0.0 -1 37
- 1.701029 1 0 ping 64 ------- 0 2.0 0.0 -1 37
r 1.701034 1 0 ping 64 ------- 0 2.0 0.0 -1 28
+ 1.8 0 1 ping 64 ------- 0 0.0 2.0 -1 47
- 1.8 0 1 ping 64 ------- 0 0.0 2.0 -1 47
+ 1.8 3 1 ping 64 ------- 0 3.0 4.0 -1 48
- 1.8 3 1 ping 64 ------- 0 3.0 4.0 -1 48
r 1.800005 0 1 ping 64 ------- 0 0.0 2.0 -1 38
+ 1.800005 1 2 ping 64 ------- 0 0.0 2.0 -1 38
- 1.800005 1 2 ping 64 ------- 0 0.0 2.0 -1 38
r 1.800005 3 1 ping 64 ------- 0 3.0 4.0 -1 39
r 1.800517 1 2 ping 64 ------- 0 0.0 2.0 -1 29
+ 1.800517 2 1 ping 64 ------- 0 2.0 0.0 -1 49
- 1.800517 2 1 ping 64 ------- 0 2.0 0.0 -1 49
r 1.801029 2 1 ping 64 ------- 0 2.0 0.0 -1 40
+ 1.801029 1 0 ping 64 ------- 0 2.0 0.0 -1 40
- 1.801029 1 0 ping 64 ------- 0 2.0 0.0 -1 40
r 1.801034 1 0 ping 64 ------- 0 2.0 0.0 -1 31
v 1.8999999999999999 link-up 4 1
v 1.8999999999999999 link-up 4 1
v 1.8999999999999999 link-up 1 4
v 1.8999999999999999 link-up 1 4
+ 1.9 0 1 ping 64 ------- 0 0.0 2.0 -1 50
- 1.9 0 1 ping 64 ------- 0 0.0 2.0 -1 50
+ 1.9 3 1 ping 64 ------- 0 3.0 4.0 -1 51
- 1.9 3 1 ping 64 ------- 0 3.0 4.0 -1 51
r 1.900005 0 1 ping 64 ------- 0 0.0 2.0 -1 41
+ 1.900005 1 2 ping 64 ------- 0 0.0 2.0 -1 41
- 1.900005 1 2 ping 64 ------- 0 0.0 2.0 -1 41
r 1.900005 3 1 ping 64 ------- 0 3.0 4.0 -1 42
+ 1.900005 1 4 ping 64 ------- 0 3.0 4.0 -1 42
- 1.900005 1 4 ping 64 ------- 0 3.0 4.0 -1 42
r 1.900517 1 2 ping 64 ------- 0 0.0 2.0 -1 32
+ 1.900517 2 1 ping 64 ------- 0 2.0 0.0 -1 52
- 1.900517 2 1 ping 64 ------- 0 2.0 0.0 -1 52
r 1.901029 2 1 ping 64 ------- 0 2.0 0.0 -1 43
+ 1.901029 1 0 ping 64 ------- 0 2.0 0.0 -1 43
- 1.901029 1 0 ping 64 ------- 0 2.0 0.0 -1 43
r 1.901034 1 0 ping 64 ------- 0 2.0 0.0 -1 34
r 2.000005 0 1 ping 64 ------- 0 0.0 2.0 -1 44
+ 2.000005 1 2 ping 64 ------- 0 0.0 2.0 -1 44
- 2.000005 1 2 ping 64 ------- 0 0.0 2.0 -1 44
r 2.000005 3 1 ping 64 ------- 0 3.0 4.0 -1 45
+ 2.000005 1 4 ping 64 ------- 0 3.0 4.0 -1 45
- 2.000005 1 4 ping 64 ------- 0 3.0 4.0 -1 45
r 2.000517 1 2 ping 64 ------- 0 0.0 2.0 -1 35
+ 2.000517 2 1 ping 64 ------- 0 2.0 0.0 -1 53
- 2.000517 2 1 ping 64 ------- 0 2.0 0.0 -1 53
r 2.001029 2 1 ping 64 ------- 0 2.0 0.0 -1 46
+ 2.001029 1 0 ping 64 ------- 0 2.0 0.0 -1 46
- 2.001029 1 0 ping 64 ------- 0 2.0 0.0 -1 46
r 2.001034 1 0 ping 64 ------- 0 2.0 0.0 -1 37
r 2.100005 0 1 ping 64 ------- 0 0.0 2.0 -1 47
+ 2.100005 1 2 ping 64 ------- 0 0.0 2.0 -1 47
- 2.100005 1 2 ping 64 ------- 0 0.0 2.0 -1 47
r 2.100005 3 1 ping 64 ------- 0 3.0 4.0 -1 48
+ 2.100005 1 4 ping 64 ------- 0 3.0 4.0 -1 48
- 2.100005 1 4 ping 64 ------- 0 3.0 4.0 -1 48
r 2.100517 1 2 ping 64 ------- 0 0.0 2.0 -1 38
+ 2.100517 2 1 ping 64 ------- 0 2.0 0.0 -1 54
- 2.100517 2 1 ping 64 ------- 0 2.0 0.0 -1 54
r 2.101029 2 1 ping 64 ------- 0 2.0 0.0 -1 49
+ 2.101029 1 0 ping 64 ------- 0 2.0 0.0 -1 49
- 2.101029 1 0 ping 64 ------- 0 2.0 0.0 -1 49
r 2.101034 1 0 ping 64 ------- 0 2.0 0.0 -1 40
r 2.200005 0 1 ping 64 ------- 0 0.0 2.0 -1 50
+ 2.200005 1 2 ping 64 ------- 0 0.0 2.0 -1 50
- 2.200005 1 2 ping 64 ------- 0 0.0 2.0 -1 50
r 2.200005 3 1 ping 64 ------- 0 3.0 4.0 -1 51
+ 2.200005 1 4 ping 64 ------- 0 3.0 4.0 -1 51
- 2.200005 1 4 ping 64 ------- 0 3.0 4.0 -1 51
r 2.200517 1 2 ping 64 ------- 0 0.0 2.0 -1 41
+ 2.200517 2 1 ping 64 ------- 0 2.0 0.0 -1 55
- 2.200517 2 1 ping 64 ------- 0 2.0 0.0 -1 55
r 2.200517 1 4 ping 64 ------- 0 3.0 4.0 -1 42
+ 2.200517 4 1 ping 64 ------- 0 4.0 3.0 -1 56
- 2.200517 4 1 ping 64 ------- 0 4.0 3.0 -1 56
r 2.201029 2 1 ping 64 ------- 0 2.0 0.0 -1 52
+ 2.201029 1 0 ping 64 ------- 0 2.0 0.0 -1 52
- 2.201029 1 0 ping 64 ------- 0 2.0 0.0 -1 52
r 2.201034 1 0 ping 64 ------- 0 2.0 0.0 -1 43
r 2.300517 1 2 ping 64 ------- 0 0.0 2.0 -1 44
+ 2.300517 2 1 ping 64 ------- 0 2.0 0.0 -1 57
- 2.300517 2 1 ping 64 ------- 0 2.0 0.0 -1 57
r 2.300517 1 4 ping 64 ------- 0 3.0 4.0 -1 45
+ 2.300517 4 1 ping 64 ------- 0 4.0 3.0 -1 58
- 2.300517 4 1 ping 64 ------- 0 4.0 3.0 -1 58
r 2.301029 2 1 ping 64 ------- 0 2.0 0.0 -1 53
+ 2.301029 1 0 ping 64 ------- 0 2.0 0.0 -1 53
- 2.301029 1 0 ping 64 ------- 0 2.0 0.0 -1 53
r 2.301034 1 0 ping 64 ------- 0 2.0 0.0 -1 46
r 2.400517 1 2 ping 64 ------- 0 0.0 2.0 -1 47
+ 2.400517 2 1 ping 64 ------- 0 2.0 0.0 -1 59
- 2.400517 2 1 ping 64 ------- 0 2.0 0.0 -1 59
r 2.400517 1 4 ping 64 ------- 0 3.0 4.0 -1 48
+ 2.400517 4 1 ping 64 ------- 0 4.0 3.0 -1 60
- 2.400517 4 1 ping 64 ------- 0 4.0 3.0 -1 60
r 2.401029 2 1 ping 64 ------- 0 2.0 0.0 -1 54
+ 2.401029 1 0 ping 64 ------- 0 2.0 0.0 -1 54
- 2.401029 1 0 ping 64 ------- 0 2.0 0.0 -1 54
r 2.401034 1 0 ping 64 ------- 0 2.0 0.0 -1 49
r 2.500517 1 2 ping 64 ------- 0 0.0 2.0 -1 50
+ 2.500517 2 1 ping 64 ------- 0 2.0 0.0 -1 61
- 2.500517 2 1 ping 64 ------- 0 2.0 0.0 -1 61
r 2.500517 1 4 ping 64 ------- 0 3.0 4.0 -1 51
+ 2.500517 4 1 ping 64 ------- 0 4.0 3.0 -1 62
- 2.500517 4 1 ping 64 ------- 0 4.0 3.0 -1 62
r 2.501029 2 1 ping 64 ------- 0 2.0 0.0 -1 55
+ 2.501029 1 0 ping 64 ------- 0 2.0 0.0 -1 55
- 2.501029 1 0 ping 64 ------- 0 2.0 0.0 -1 55
r 2.501029 4 1 ping 64 ------- 0 4.0 3.0 -1 56
+ 2.501029 1 3 ping 64 ------- 0 4.0 3.0 -1 56
- 2.501029 1 3 ping 64 ------- 0 4.0 3.0 -1 56
r 2.501034 1 0 ping 64 ------- 0 2.0 0.0 -1 52
r 2.601029 2 1 ping 64 ------- 0 2.0 0.0 -1 57
+ 2.601029 1 0 ping 64 ------- 0 2.0 0.0 -1 57
- 2.601029 1 0 ping 64 ------- 0 2.0 0.0 -1 57
r 2.601029 4 1 ping 64 ------- 0 4.0 3.0 -1 58
+ 2.601029 1 3 ping 64 ------- 0 4.0 3.0 -1 58
- 2.601029 1 3 ping 64 ------- 0 4.0 3.0 -1 58
r 2.601034 1 0 ping 64 ------- 0 2.0 0.0 -1 53
r 2.701029 2 1 ping 64 ------- 0 2.0 0.0 -1 59
+ 2.701029 1 0 ping 64 ------- 0 2.0 0.0 -1 59
- 2.701029 1 0 ping 64 ------- 0 2.0 0.0 -1 59
r 2.701029 4 1 ping 64 ------- 0 4.0 3.0 -1 60
+ 2.701029 1 3 ping 64 ------- 0 4.0 3.0 -1 60
- 2.701029 1 3 ping 64 ------- 0 4.0 3.0 -1 60
r 2.701034 1 0 ping 64 ------- 0 2.0 0.0 -1 54
r 2.801029 2 1 ping 64 ------- 0 2.0 0.0 -1 61
+ 2.801029 1 0 ping 64 ------- 0 2.0 0.0 -1 61
- 2.801029 1 0 ping 64 ------- 0 2.0 0.0 -1 61
r 2.801029 4 1 ping 64 ------- 0 4.0 3.0 -1 62
+ 2.801029 1 3 ping 64 ------- 0 4.0 3.0 -1 62
- 2.801029 1 3 ping 64 ------- 0 4.0 3.0 -1 62
r 2.801034 1 0 ping 64 ------- 0 2.0 0.0 -1 55
r 2.801034 1 3 ping 64 ------- 0 4.0 3.0 -1 56
r 2.901034 1 0 ping 64 ------- 0 2.0 0.0 -1 57
r 2.901034 1 3 ping 64 ------- 0 4.0 3.0 -1 58
r 3.001034 1 0 ping 64 ------- 0 2.0 0.0 -1 59
r 3.001034 1 3 ping 64 ------- 0 4.0 3.0 -1 60
r 3.101034 1 0 ping 64 ------- 0 2.0 0.0 -1 61
r 3.101034 1 3 ping 64 ------- 0 4.0 3.0 -1 62
