+ 0.1 0 2 ping 64 ------- 0 0.0 4.0 -1 0
- 0.1 0 2 ping 64 ------- 0 0.0 4.0 -1 0
+ 0.2 0 2 ping 64 ------- 0 0.0 4.0 -1 1
- 0.2 0 2 ping 64 ------- 0 0.0 4.0 -1 1
+ 0.3 0 2 ping 64 ------- 0 0.0 4.0 -1 2
- 0.3 0 2 ping 64 ------- 0 0.0 4.0 -1 2
+ 0.4 0 2 ping 64 ------- 0 0.0 4.0 -1 3
- 0.4 0 2 ping 64 ------- 0 0.0 4.0 -1 3
r 0.400005 0 2 ping 64 ------- 0 0.0 4.0 -1 0
+ 0.400005 2 4 ping 64 ------- 0 0.0 4.0 -1 0
- 0.400005 2 4 ping 64 ------- 0 0.0 4.0 -1 0
+ 0.5 0 2 ping 64 ------- 0 0.0 4.0 -1 4
- 0.5 0 2 ping 64 ------- 0 0.0 4.0 -1 4
r 0.500005 0 2 ping 64 ------- 0 0.0 4.0 -1 1
+ 0.500005 2 4 ping 64 ------- 0 0.0 4.0 -1 1
- 0.500005 2 4 ping 64 ------- 0 0.0 4.0 -1 1
+ 0.6 0 2 ping 64 ------- 0 0.0 4.0 -1 5
- 0.6 0 2 ping 64 ------- 0 0.0 4.0 -1 5
r 0.600005 0 2 ping 64 ------- 0 0.0 4.0 -1 2
+ 0.600005 2 4 ping 64 ------- 0 0.0 4.0 -1 2
- 0.600005 2 4 ping 64 ------- 0 0.0 4.0 -1 2
+ 0.7 0 2 ping 64 ------- 0 0.0 4.0 -1 6
- 0.7 0 2 ping 64 ------- 0 0.0 4.0 -1 6
r 0.700005 0 2 ping 64 ------- 0 0.0 4.0 -1 3
+ 0.700005 2 4 ping 64 ------- 0 0.0 4.0 -1 3
- 0.700005 2 4 ping 64 ------- 0 0.0 4.0 -1 3
r 0.700517 2 4 ping 64 ------- 0 0.0 4.0 -1 0
+ 0.700517 4 2 ping 64 ------- 0 4.0 0.0 -1 7
- 0.700517 4 2 ping 64 ------- 0 4.0 0.0 -1 7
+ 0.8 0 2 ping 64 ------- 0 0.0 4.0 -1 8
- 0.8 0 2 ping 64 ------- 0 0.0 4.0 -1 8
r 0.800005 0 2 ping 64 ------- 0 0.0 4.0 -1 4
+ 0.800005 2 4 ping 64 ------- 0 0.0 4.0 -1 4
- 0.800005 2 4 ping 64 ------- 0 0.0 4.0 -1 4
r 0.800517 2 4 ping 64 ------- 0 0.0 4.0 -1 1
+ 0.800517 4 2 ping 64 ------- 0 4.0 0.0 -1 9
- 0.800517 4 2 ping 64 ------- 0 4.0 0.0 -1 9
+ 0.9 0 2 ping 64 ------- 0 0.0 4.0 -1 10
- 0.9 0 2 ping 64 ------- 0 0.0 4.0 -1 10
v 0.90000000000000002 link-down 6 2
v 0.90000000000000002 link-down 6 2
v 0.90000000000000002 link-down 2 6
v 0.90000000000000002 link-down 2 6
r 0.900005 0 2 ping 64 ------- 0 0.0 4.0 -1 5
+ 0.900005 2 4 ping 64 ------- 0 0.0 4.0 -1 5
- 0.900005 2 4 ping 64 ------- 0 0.0 4.0 -1 5
r 0.900517 2 4 ping 64 ------- 0 0.0 4.0 -1 2
+ 0.900517 4 2 ping 64 ------- 0 4.0 0.0 -1 11
- 0.900517 4 2 ping 64 ------- 0 4.0 0.0 -1 11
+ 1 0 2 ping 64 ------- 0 0.0 4.0 -1 12
- 1 0 2 ping 64 ------- 0 0.0 4.0 -1 12
r 1.000005 0 2 ping 64 ------- 0 0.0 4.0 -1 6
+ 1.000005 2 4 ping 64 ------- 0 0.0 4.0 -1 6
- 1.000005 2 4 ping 64 ------- 0 0.0 4.0 -1 6
r 1.000517 2 4 ping 64 ------- 0 0.0 4.0 -1 3
+ 1.000517 4 2 ping 64 ------- 0 4.0 0.0 -1 13
- 1.000517 4 2 ping 64 ------- 0 4.0 0.0 -1 13
r 1.001029 4 2 ping 64 ------- 0 4.0 0.0 -1 7
+ 1.001029 2 0 ping 64 ------- 0 4.0 0.0 -1 7
- 1.001029 2 0 ping 64 ------- 0 4.0 0.0 -1 7
+ 1.1 5 2 ping 64 ------- 0 5.0 6.0 -1 14
- 1.1 5 2 ping 64 ------- 0 5.0 6.0 -1 14
r 1.100005 0 2 ping 64 ------- 0 0.0 4.0 -1 8
+ 1.100005 2 4 ping 64 ------- 0 0.0 4.0 -1 8
- 1.100005 2 4 ping 64 ------- 0 0.0 4.0 -1 8
r 1.100517 2 4 ping 64 ------- 0 0.0 4.0 -1 4
+ 1.100517 4 2 ping 64 ------- 0 4.0 0.0 -1 15
- 1.100517 4 2 ping 64 ------- 0 4.0 0.0 -1 15
r 1.101029 4 2 ping 64 ------- 0 4.0 0.0 -1 9
+ 1.101029 2 0 ping 64 ------- 0 4.0 0.0 -1 9
- 1.101029 2 0 ping 64 ------- 0 4.0 0.0 -1 9
+ 1.2 5 2 ping 64 ------- 0 5.0 6.0 -1 16
- 1.2 5 2 ping 64 ------- 0 5.0 6.0 -1 16
r 1.200005 0 2 ping 64 ------- 0 0.0 4.0 -1 10
+ 1.200005 2 4 ping 64 ------- 0 0.0 4.0 -1 10
- 1.200005 2 4 ping 64 ------- 0 0.0 4.0 -1 10
r 1.200517 2 4 ping 64 ------- 0 0.0 4.0 -1 5
+ 1.200517 4 2 ping 64 ------- 0 4.0 0.0 -1 17
- 1.200517 4 2 ping 64 ------- 0 4.0 0.0 -1 17
r 1.201029 4 2 ping 64 ------- 0 4.0 0.0 -1 11
+ 1.201029 2 0 ping 64 ------- 0 4.0 0.0 -1 11
- 1.201029 2 0 ping 64 ------- 0 4.0 0.0 -1 11
+ 1.3 5 2 ping 64 ------- 0 5.0 6.0 -1 18
- 1.3 5 2 ping 64 ------- 0 5.0 6.0 -1 18
r 1.300005 0 2 ping 64 ------- 0 0.0 4.0 -1 12
+ 1.300005 2 4 ping 64 ------- 0 0.0 4.0 -1 12
- 1.300005 2 4 ping 64 ------- 0 0.0 4.0 -1 12
r 1.300517 2 4 ping 64 ------- 0 0.0 4.0 -1 6
+ 1.300517 4 2 ping 64 ------- 0 4.0 0.0 -1 19
- 1.300517 4 2 ping 64 ------- 0 4.0 0.0 -1 19
r 1.301029 4 2 ping 64 ------- 0 4.0 0.0 -1 13
+ 1.301029 2 0 ping 64 ------- 0 4.0 0.0 -1 13
- 1.301029 2 0 ping 64 ------- 0 4.0 0.0 -1 13
r 1.301034 2 0 ping 64 ------- 0 4.0 0.0 -1 7
+ 1.4 5 2 ping 64 ------- 0 5.0 6.0 -1 20
- 1.4 5 2 ping 64 ------- 0 5.0 6.0 -1 20
r 1.400005 5 2 ping 64 ------- 0 5.0 6.0 -1 14
r 1.400517 2 4 ping 64 ------- 0 0.0 4.0 -1 8
+ 1.400517 4 2 ping 64 ------- 0 4.0 0.0 -1 21
- 1.400517 4 2 ping 64 ------- 0 4.0 0.0 -1 21
r 1.401029 4 2 ping 64 ------- 0 4.0 0.0 -1 15
+ 1.401029 2 0 ping 64 ------- 0 4.0 0.0 -1 15
- 1.401029 2 0 ping 64 ------- 0 4.0 0.0 -1 15
r 1.401034 2 0 ping 64 ------- 0 4.0 0.0 -1 9
+ 1.5 5 2 ping 64 ------- 0 5.0 6.0 -1 22
- 1.5 5 2 ping 64 ------- 0 5.0 6.0 -1 22
r 1.500005 5 2 ping 64 ------- 0 5.0 6.0 -1 16
r 1.500517 2 4 ping 64 ------- 0 0.0 4.0 -1 10
+ 1.500517 4 2 ping 64 ------- 0 4.0 0.0 -1 23
- 1.500517 4 2 ping 64 ------- 0 4.0 0.0 -1 23
r 1.501029 4 2 ping 64 ------- 0 4.0 0.0 -1 17
+ 1.501029 2 0 ping 64 ------- 0 4.0 0.0 -1 17
- 1.501029 2 0 ping 64 ------- 0 4.0 0.0 -1 17
r 1.501034 2 0 ping 64 ------- 0 4.0 0.0 -1 11
+ 1.6 5 2 ping 64 ------- 0 5.0 6.0 -1 24
- 1.6 5 2 ping 64 ------- 0 5.0 6.0 -1 24
r 1.600005 5 2 ping 64 ------- 0 5.0 6.0 -1 18
r 1.600517 2 4 ping 64 ------- 0 0.0 4.0 -1 12
+ 1.600517 4 2 ping 64 ------- 0 4.0 0.0 -1 25
- 1.600517 4 2 ping 64 ------- 0 4.0 0.0 -1 25
r 1.601029 4 2 ping 64 ------- 0 4.0 0.0 -1 19
+ 1.601029 2 0 ping 64 ------- 0 4.0 0.0 -1 19
- 1.601029 2 0 ping 64 ------- 0 4.0 0.0 -1 19
r 1.601034 2 0 ping 64 ------- 0 4.0 0.0 -1 13
+ 1.7 5 2 ping 64 ------- 0 5.0 6.0 -1 26
- 1.7 5 2 ping 64 ------- 0 5.0 6.0 -1 26
r 1.700005 5 2 ping 64 ------- 0 5.0 6.0 -1 20
r 1.701029 4 2 ping 64 ------- 0 4.0 0.0 -1 21
+ 1.701029 2 0 ping 64 ------- 0 4.0 0.0 -1 21
- 1.701029 2 0 ping 64 ------- 0 4.0 0.0 -1 21
r 1.701034 2 0 ping 64 ------- 0 4.0 0.0 -1 15
+ 1.8 5 2 ping 64 ------- 0 5.0 6.0 -1 27
- 1.8 5 2 ping 64 ------- 0 5.0 6.0 -1 27
r 1.800005 5 2 ping 64 ------- 0 5.0 6.0 -1 22
r 1.801029 4 2 ping 64 ------- 0 4.0 0.0 -1 23
+ 1.801029 2 0 ping 64 ------- 0 4.0 0.0 -1 23
- 1.801029 2 0 ping 64 ------- 0 4.0 0.0 -1 23
r 1.801034 2 0 ping 64 ------- 0 4.0 0.0 -1 17
+ 1.9 5 2 ping 64 ------- 0 5.0 6.0 -1 28
- 1.9 5 2 ping 64 ------- 0 5.0 6.0 -1 28
v 1.8999999999999999 link-up 6 2
v 1.8999999999999999 link-up 6 2
v 1.8999999999999999 link-up 2 6
v 1.8999999999999999 link-up 2 6
r 1.900005 5 2 ping 64 ------- 0 5.0 6.0 -1 24
+ 1.900005 2 6 ping 64 ------- 0 5.0 6.0 -1 24
- 1.900005 2 6 ping 64 ------- 0 5.0 6.0 -1 24
r 1.901029 4 2 ping 64 ------- 0 4.0 0.0 -1 25
+ 1.901029 2 0 ping 64 ------- 0 4.0 0.0 -1 25
- 1.901029 2 0 ping 64 ------- 0 4.0 0.0 -1 25
r 1.901034 2 0 ping 64 ------- 0 4.0 0.0 -1 19
r 2.000005 5 2 ping 64 ------- 0 5.0 6.0 -1 26
+ 2.000005 2 6 ping 64 ------- 0 5.0 6.0 -1 26
- 2.000005 2 6 ping 64 ------- 0 5.0 6.0 -1 26
r 2.001034 2 0 ping 64 ------- 0 4.0 0.0 -1 21
r 2.100005 5 2 ping 64 ------- 0 5.0 6.0 -1 27
+ 2.100005 2 6 ping 64 ------- 0 5.0 6.0 -1 27
- 2.100005 2 6 ping 64 ------- 0 5.0 6.0 -1 27
r 2.101034 2 0 ping 64 ------- 0 4.0 0.0 -1 23
r 2.200005 5 2 ping 64 ------- 0 5.0 6.0 -1 28
+ 2.200005 2 6 ping 64 ------- 0 5.0 6.0 -1 28
- 2.200005 2 6 ping 64 ------- 0 5.0 6.0 -1 28
r 2.200517 2 6 ping 64 ------- 0 5.0 6.0 -1 24
+ 2.200517 6 2 ping 64 ------- 0 6.0 5.0 -1 29
- 2.200517 6 2 ping 64 ------- 0 6.0 5.0 -1 29
r 2.201034 2 0 ping 64 ------- 0 4.0 0.0 -1 25
r 2.300517 2 6 ping 64 ------- 0 5.0 6.0 -1 26
+ 2.300517 6 2 ping 64 ------- 0 6.0 5.0 -1 30
- 2.300517 6 2 ping 64 ------- 0 6.0 5.0 -1 30
r 2.400517 2 6 ping 64 ------- 0 5.0 6.0 -1 27
+ 2.400517 6 2 ping 64 ------- 0 6.0 5.0 -1 31
- 2.400517 6 2 ping 64 ------- 0 6.0 5.0 -1 31
r 2.500517 2 6 ping 64 ------- 0 5.0 6.0 -1 28
+ 2.500517 6 2 ping 64 ------- 0 6.0 5.0 -1 32
- 2.500517 6 2 ping 64 ------- 0 6.0 5.0 -1 32
r 2.501029 6 2 ping 64 ------- 0 6.0 5.0 -1 29
+ 2.501029 2 5 ping 64 ------- 0 6.0 5.0 -1 29
- 2.501029 2 5 ping 64 ------- 0 6.0 5.0 -1 29
r 2.601029 6 2 ping 64 ------- 0 6.0 5.0 -1 30
+ 2.601029 2 5 ping 64 ------- 0 6.0 5.0 -1 30
- 2.601029 2 5 ping 64 ------- 0 6.0 5.0 -1 30
r 2.701029 6 2 ping 64 ------- 0 6.0 5.0 -1 31
+ 2.701029 2 5 ping 64 ------- 0 6.0 5.0 -1 31
- 2.701029 2 5 ping 64 ------- 0 6.0 5.0 -1 31
r 2.801029 6 2 ping 64 ------- 0 6.0 5.0 -1 32
+ 2.801029 2 5 ping 64 ------- 0 6.0 5.0 -1 32
- 2.801029 2 5 ping 64 ------- 0 6.0 5.0 -1 32
r 2.801034 2 5 ping 64 ------- 0 6.0 5.0 -1 29
r 2.901034 2 5 ping 64 ------- 0 6.0 5.0 -1 30
r 3.001034 2 5 ping 64 ------- 0 6.0 5.0 -1 31
r 3.101034 2 5 ping 64 ------- 0 6.0 5.0 -1 32
