+ 0.1 0 2 ping 64 ------- 0 0.0 4.0 -1 0
- 0.1 0 2 ping 64 ------- 0 0.0 4.0 -1 0
+ 0.1 5 2 ping 64 ------- 0 5.0 6.0 -1 1
- 0.1 5 2 ping 64 ------- 0 5.0 6.0 -1 1
+ 0.2 0 2 ping 64 ------- 0 0.0 4.0 -1 2
- 0.2 0 2 ping 64 ------- 0 0.0 4.0 -1 2
+ 0.2 5 2 ping 64 ------- 0 5.0 6.0 -1 3
- 0.2 5 2 ping 64 ------- 0 5.0 6.0 -1 3
+ 0.3 0 2 ping 64 ------- 0 0.0 4.0 -1 4
- 0.3 0 2 ping 64 ------- 0 0.0 4.0 -1 4
+ 0.3 5 2 ping 64 ------- 0 5.0 6.0 -1 5
- 0.3 5 2 ping 64 ------- 0 5.0 6.0 -1 5
+ 0.4 0 2 ping 64 ------- 0 0.0 4.0 -1 6
- 0.4 0 2 ping 64 ------- 0 0.0 4.0 -1 6
+ 0.4 5 2 ping 64 ------- 0 5.0 6.0 -1 7
- 0.4 5 2 ping 64 ------- 0 5.0 6.0 -1 7
r 0.400005 0 2 ping 64 ------- 0 0.0 4.0 -1 0
+ 0.400005 2 4 ping 64 ------- 0 0.0 4.0 -1 0
- 0.400005 2 4 ping 64 ------- 0 0.0 4.0 -1 0
r 0.400005 5 2 ping 64 ------- 0 5.0 6.0 -1 1
+ 0.400005 2 6 ping 64 ------- 0 5.0 6.0 -1 1
- 0.400005 2 6 ping 64 ------- 0 5.0 6.0 -1 1
+ 0.5 0 2 ping 64 ------- 0 0.0 4.0 -1 8
- 0.5 0 2 ping 64 ------- 0 0.0 4.0 -1 8
+ 0.5 5 2 ping 64 ------- 0 5.0 6.0 -1 9
- 0.5 5 2 ping 64 ------- 0 5.0 6.0 -1 9
r 0.500005 0 2 ping 64 ------- 0 0.0 4.0 -1 2
+ 0.500005 2 4 ping 64 ------- 0 0.0 4.0 -1 2
- 0.500005 2 4 ping 64 ------- 0 0.0 4.0 -1 2
r 0.500005 5 2 ping 64 ------- 0 5.0 6.0 -1 3
+ 0.500005 2 6 ping 64 ------- 0 5.0 6.0 -1 3
- 0.500005 2 6 ping 64 ------- 0 5.0 6.0 -1 3
+ 0.6 0 2 ping 64 ------- 0 0.0 4.0 -1 10
- 0.6 0 2 ping 64 ------- 0 0.0 4.0 -1 10
+ 0.6 5 2 ping 64 ------- 0 5.0 6.0 -1 11
- 0.6 5 2 ping 64 ------- 0 5.0 6.0 -1 11
r 0.600005 0 2 ping 64 ------- 0 0.0 4.0 -1 4
+ 0.600005 2 4 ping 64 ------- 0 0.0 4.0 -1 4
- 0.600005 2 4 ping 64 ------- 0 0.0 4.0 -1 4
r 0.600005 5 2 ping 64 ------- 0 5.0 6.0 -1 5
+ 0.600005 2 6 ping 64 ------- 0 5.0 6.0 -1 5
- 0.600005 2 6 ping 64 ------- 0 5.0 6.0 -1 5
+ 0.7 0 2 ping 64 ------- 0 0.0 4.0 -1 12
- 0.7 0 2 ping 64 ------- 0 0.0 4.0 -1 12
+ 0.7 5 2 ping 64 ------- 0 5.0 6.0 -1 13
- 0.7 5 2 ping 64 ------- 0 5.0 6.0 -1 13
r 0.700005 0 2 ping 64 ------- 0 0.0 4.0 -1 6
+ 0.700005 2 4 ping 64 ------- 0 0.0 4.0 -1 6
- 0.700005 2 4 ping 64 ------- 0 0.0 4.0 -1 6
r 0.700005 5 2 ping 64 ------- 0 5.0 6.0 -1 7
+ 0.700005 2 6 ping 64 ------- 0 5.0 6.0 -1 7
- 0.700005 2 6 ping 64 ------- 0 5.0 6.0 -1 7
r 0.70001 2 4 ping 64 ------- 0 0.0 4.0 -1 0
+ 0.70001 4 2 ping 64 ------- 0 4.0 0.0 -1 14
- 0.70001 4 2 ping 64 ------- 0 4.0 0.0 -1 14
r 0.70001 2 6 ping 64 ------- 0 5.0 6.0 -1 1
+ 0.70001 6 2 ping 64 ------- 0 6.0 5.0 -1 15
- 0.70001 6 2 ping 64 ------- 0 6.0 5.0 -1 15
+ 0.8 0 2 ping 64 ------- 0 0.0 4.0 -1 16
- 0.8 0 2 ping 64 ------- 0 0.0 4.0 -1 16
+ 0.8 5 2 ping 64 ------- 0 5.0 6.0 -1 17
- 0.8 5 2 ping 64 ------- 0 5.0 6.0 -1 17
r 0.800005 0 2 ping 64 ------- 0 0.0 4.0 -1 8
+ 0.800005 2 4 ping 64 ------- 0 0.0 4.0 -1 8
- 0.800005 2 4 ping 64 ------- 0 0.0 4.0 -1 8
r 0.800005 5 2 ping 64 ------- 0 5.0 6.0 -1 9
+ 0.800005 2 6 ping 64 ------- 0 5.0 6.0 -1 9
- 0.800005 2 6 ping 64 ------- 0 5.0 6.0 -1 9
r 0.80001 2 4 ping 64 ------- 0 0.0 4.0 -1 2
+ 0.80001 4 2 ping 64 ------- 0 4.0 0.0 -1 18
- 0.80001 4 2 ping 64 ------- 0 4.0 0.0 -1 18
r 0.80001 2 6 ping 64 ------- 0 5.0 6.0 -1 3
+ 0.80001 6 2 ping 64 ------- 0 6.0 5.0 -1 19
- 0.80001 6 2 ping 64 ------- 0 6.0 5.0 -1 19
+ 0.9 0 2 ping 64 ------- 0 0.0 4.0 -1 20
- 0.9 0 2 ping 64 ------- 0 0.0 4.0 -1 20
+ 0.9 5 2 ping 64 ------- 0 5.0 6.0 -1 21
- 0.9 5 2 ping 64 ------- 0 5.0 6.0 -1 21
r 0.900005 0 2 ping 64 ------- 0 0.0 4.0 -1 10
+ 0.900005 2 4 ping 64 ------- 0 0.0 4.0 -1 10
- 0.900005 2 4 ping 64 ------- 0 0.0 4.0 -1 10
r 0.900005 5 2 ping 64 ------- 0 5.0 6.0 -1 11
+ 0.900005 2 6 ping 64 ------- 0 5.0 6.0 -1 11
- 0.900005 2 6 ping 64 ------- 0 5.0 6.0 -1 11
r 0.90001 2 4 ping 64 ------- 0 0.0 4.0 -1 4
+ 0.90001 4 2 ping 64 ------- 0 4.0 0.0 -1 22
- 0.90001 4 2 ping 64 ------- 0 4.0 0.0 -1 22
r 0.90001 2 6 ping 64 ------- 0 5.0 6.0 -1 5
+ 0.90001 6 2 ping 64 ------- 0 6.0 5.0 -1 23
- 0.90001 6 2 ping 64 ------- 0 6.0 5.0 -1 23
+ 1 0 2 ping 64 ------- 0 0.0 4.0 -1 24
- 1 0 2 ping 64 ------- 0 0.0 4.0 -1 24
+ 1 5 2 ping 64 ------- 0 5.0 6.0 -1 25
- 1 5 2 ping 64 ------- 0 5.0 6.0 -1 25
d 1 6 2 ping 64 ------- 0 6.0 5.0 -1 15
d 1 6 2 ping 64 ------- 0 6.0 5.0 -1 19
d 1 6 2 ping 64 ------- 0 6.0 5.0 -1 23
v 1 link-down 6 2
v 1 link-down 6 2
d 1 2 6 ping 64 ------- 0 5.0 6.0 -1 7
d 1 2 6 ping 64 ------- 0 5.0 6.0 -1 9
d 1 2 6 ping 64 ------- 0 5.0 6.0 -1 11
v 1 link-down 2 6
v 1 link-down 2 6
r 1.000005 0 2 ping 64 ------- 0 0.0 4.0 -1 12
+ 1.000005 2 4 ping 64 ------- 0 0.0 4.0 -1 12
- 1.000005 2 4 ping 64 ------- 0 0.0 4.0 -1 12
r 1.000005 5 2 ping 64 ------- 0 5.0 6.0 -1 13
r 1.00001 2 4 ping 64 ------- 0 0.0 4.0 -1 6
+ 1.00001 4 2 ping 64 ------- 0 4.0 0.0 -1 26
- 1.00001 4 2 ping 64 ------- 0 4.0 0.0 -1 26
r 1.000015 4 2 ping 64 ------- 0 4.0 0.0 -1 14
+ 1.000015 2 0 ping 64 ------- 0 4.0 0.0 -1 14
- 1.000015 2 0 ping 64 ------- 0 4.0 0.0 -1 14
+ 1.1 0 2 ping 64 ------- 0 0.0 4.0 -1 27
- 1.1 0 2 ping 64 ------- 0 0.0 4.0 -1 27
+ 1.1 5 2 ping 64 ------- 0 5.0 6.0 -1 28
- 1.1 5 2 ping 64 ------- 0 5.0 6.0 -1 28
r 1.100005 0 2 ping 64 ------- 0 0.0 4.0 -1 16
+ 1.100005 2 4 ping 64 ------- 0 0.0 4.0 -1 16
- 1.100005 2 4 ping 64 ------- 0 0.0 4.0 -1 16
r 1.100005 5 2 ping 64 ------- 0 5.0 6.0 -1 17
r 1.10001 2 4 ping 64 ------- 0 0.0 4.0 -1 8
+ 1.10001 4 2 ping 64 ------- 0 4.0 0.0 -1 29
- 1.10001 4 2 ping 64 ------- 0 4.0 0.0 -1 29
r 1.100015 4 2 ping 64 ------- 0 4.0 0.0 -1 18
+ 1.100015 2 0 ping 64 ------- 0 4.0 0.0 -1 18
- 1.100015 2 0 ping 64 ------- 0 4.0 0.0 -1 18
+ 1.2 0 2 ping 64 ------- 0 0.0 4.0 -1 30
- 1.2 0 2 ping 64 ------- 0 0.0 4.0 -1 30
+ 1.2 5 2 ping 64 ------- 0 5.0 6.0 -1 31
- 1.2 5 2 ping 64 ------- 0 5.0 6.0 -1 31
r 1.200005 0 2 ping 64 ------- 0 0.0 4.0 -1 20
+ 1.200005 2 4 ping 64 ------- 0 0.0 4.0 -1 20
- 1.200005 2 4 ping 64 ------- 0 0.0 4.0 -1 20
r 1.200005 5 2 ping 64 ------- 0 5.0 6.0 -1 21
r 1.20001 2 4 ping 64 ------- 0 0.0 4.0 -1 10
+ 1.20001 4 2 ping 64 ------- 0 4.0 0.0 -1 32
- 1.20001 4 2 ping 64 ------- 0 4.0 0.0 -1 32
r 1.200015 4 2 ping 64 ------- 0 4.0 0.0 -1 22
+ 1.200015 2 0 ping 64 ------- 0 4.0 0.0 -1 22
- 1.200015 2 0 ping 64 ------- 0 4.0 0.0 -1 22
+ 1.3 0 2 ping 64 ------- 0 0.0 4.0 -1 33
- 1.3 0 2 ping 64 ------- 0 0.0 4.0 -1 33
+ 1.3 5 2 ping 64 ------- 0 5.0 6.0 -1 34
- 1.3 5 2 ping 64 ------- 0 5.0 6.0 -1 34
r 1.300005 0 2 ping 64 ------- 0 0.0 4.0 -1 24
+ 1.300005 2 4 ping 64 ------- 0 0.0 4.0 -1 24
- 1.300005 2 4 ping 64 ------- 0 0.0 4.0 -1 24
r 1.300005 5 2 ping 64 ------- 0 5.0 6.0 -1 25
r 1.30001 2 4 ping 64 ------- 0 0.0 4.0 -1 12
+ 1.30001 4 2 ping 64 ------- 0 4.0 0.0 -1 35
- 1.30001 4 2 ping 64 ------- 0 4.0 0.0 -1 35
r 1.300015 4 2 ping 64 ------- 0 4.0 0.0 -1 26
+ 1.300015 2 0 ping 64 ------- 0 4.0 0.0 -1 26
- 1.300015 2 0 ping 64 ------- 0 4.0 0.0 -1 26
r 1.30002 2 0 ping 64 ------- 0 4.0 0.0 -1 14
+ 1.4 0 2 ping 64 ------- 0 0.0 4.0 -1 36
- 1.4 0 2 ping 64 ------- 0 0.0 4.0 -1 36
+ 1.4 5 2 ping 64 ------- 0 5.0 6.0 -1 37
- 1.4 5 2 ping 64 ------- 0 5.0 6.0 -1 37
r 1.400005 0 2 ping 64 ------- 0 0.0 4.0 -1 27
+ 1.400005 2 4 ping 64 ------- 0 0.0 4.0 -1 27
- 1.400005 2 4 ping 64 ------- 0 0.0 4.0 -1 27
r 1.400005 5 2 ping 64 ------- 0 5.0 6.0 -1 28
r 1.40001 2 4 ping 64 ------- 0 0.0 4.0 -1 16
+ 1.40001 4 2 ping 64 ------- 0 4.0 0.0 -1 38
- 1.40001 4 2 ping 64 ------- 0 4.0 0.0 -1 38
r 1.400015 4 2 ping 64 ------- 0 4.0 0.0 -1 29
+ 1.400015 2 0 ping 64 ------- 0 4.0 0.0 -1 29
- 1.400015 2 0 ping 64 ------- 0 4.0 0.0 -1 29
r 1.40002 2 0 ping 64 ------- 0 4.0 0.0 -1 18
+ 1.5 0 2 ping 64 ------- 0 0.0 4.0 -1 39
- 1.5 0 2 ping 64 ------- 0 0.0 4.0 -1 39
+ 1.5 5 2 ping 64 ------- 0 5.0 6.0 -1 40
- 1.5 5 2 ping 64 ------- 0 5.0 6.0 -1 40
r 1.500005 0 2 ping 64 ------- 0 0.0 4.0 -1 30
+ 1.500005 2 4 ping 64 ------- 0 0.0 4.0 -1 30
- 1.500005 2 4 ping 64 ------- 0 0.0 4.0 -1 30
r 1.500005 5 2 ping 64 ------- 0 5.0 6.0 -1 31
r 1.50001 2 4 ping 64 ------- 0 0.0 4.0 -1 20
+ 1.50001 4 2 ping 64 ------- 0 4.0 0.0 -1 41
- 1.50001 4 2 ping 64 ------- 0 4.0 0.0 -1 41
r 1.500015 4 2 ping 64 ------- 0 4.0 0.0 -1 32
+ 1.500015 2 0 ping 64 ------- 0 4.0 0.0 -1 32
- 1.500015 2 0 ping 64 ------- 0 4.0 0.0 -1 32
r 1.50002 2 0 ping 64 ------- 0 4.0 0.0 -1 22
+ 1.6 0 2 ping 64 ------- 0 0.0 4.0 -1 42
- 1.6 0 2 ping 64 ------- 0 0.0 4.0 -1 42
+ 1.6 5 2 ping 64 ------- 0 5.0 6.0 -1 43
- 1.6 5 2 ping 64 ------- 0 5.0 6.0 -1 43
r 1.600005 0 2 ping 64 ------- 0 0.0 4.0 -1 33
+ 1.600005 2 4 ping 64 ------- 0 0.0 4.0 -1 33
- 1.600005 2 4 ping 64 ------- 0 0.0 4.0 -1 33
r 1.600005 5 2 ping 64 ------- 0 5.0 6.0 -1 34
r 1.60001 2 4 ping 64 ------- 0 0.0 4.0 -1 24
+ 1.60001 4 2 ping 64 ------- 0 4.0 0.0 -1 44
- 1.60001 4 2 ping 64 ------- 0 4.0 0.0 -1 44
r 1.600015 4 2 ping 64 ------- 0 4.0 0.0 -1 35
+ 1.600015 2 0 ping 64 ------- 0 4.0 0.0 -1 35
- 1.600015 2 0 ping 64 ------- 0 4.0 0.0 -1 35
r 1.60002 2 0 ping 64 ------- 0 4.0 0.0 -1 26
+ 1.7 0 2 ping 64 ------- 0 0.0 4.0 -1 45
- 1.7 0 2 ping 64 ------- 0 0.0 4.0 -1 45
+ 1.7 5 2 ping 64 ------- 0 5.0 6.0 -1 46
- 1.7 5 2 ping 64 ------- 0 5.0 6.0 -1 46
r 1.700005 0 2 ping 64 ------- 0 0.0 4.0 -1 36
+ 1.700005 2 4 ping 64 ------- 0 0.0 4.0 -1 36
- 1.700005 2 4 ping 64 ------- 0 0.0 4.0 -1 36
r 1.700005 5 2 ping 64 ------- 0 5.0 6.0 -1 37
r 1.70001 2 4 ping 64 ------- 0 0.0 4.0 -1 27
+ 1.70001 4 2 ping 64 ------- 0 4.0 0.0 -1 47
- 1.70001 4 2 ping 64 ------- 0 4.0 0.0 -1 47
r 1.700015 4 2 ping 64 ------- 0 4.0 0.0 -1 38
+ 1.700015 2 0 ping 64 ------- 0 4.0 0.0 -1 38
- 1.700015 2 0 ping 64 ------- 0 4.0 0.0 -1 38
r 1.70002 2 0 ping 64 ------- 0 4.0 0.0 -1 29
+ 1.8 0 2 ping 64 ------- 0 0.0 4.0 -1 48
- 1.8 0 2 ping 64 ------- 0 0.0 4.0 -1 48
+ 1.8 5 2 ping 64 ------- 0 5.0 6.0 -1 49
- 1.8 5 2 ping 64 ------- 0 5.0 6.0 -1 49
r 1.800005 0 2 ping 64 ------- 0 0.0 4.0 -1 39
+ 1.800005 2 4 ping 64 ------- 0 0.0 4.0 -1 39
- 1.800005 2 4 ping 64 ------- 0 0.0 4.0 -1 39
r 1.800005 5 2 ping 64 ------- 0 5.0 6.0 -1 40
r 1.80001 2 4 ping 64 ------- 0 0.0 4.0 -1 30
+ 1.80001 4 2 ping 64 ------- 0 4.0 0.0 -1 50
- 1.80001 4 2 ping 64 ------- 0 4.0 0.0 -1 50
r 1.800015 4 2 ping 64 ------- 0 4.0 0.0 -1 41
+ 1.800015 2 0 ping 64 ------- 0 4.0 0.0 -1 41
- 1.800015 2 0 ping 64 ------- 0 4.0 0.0 -1 41
r 1.80002 2 0 ping 64 ------- 0 4.0 0.0 -1 32
+ 1.9 0 2 ping 64 ------- 0 0.0 4.0 -1 51
- 1.9 0 2 ping 64 ------- 0 0.0 4.0 -1 51
+ 1.9 5 2 ping 64 ------- 0 5.0 6.0 -1 52
- 1.9 5 2 ping 64 ------- 0 5.0 6.0 -1 52
r 1.900005 0 2 ping 64 ------- 0 0.0 4.0 -1 42
+ 1.900005 2 4 ping 64 ------- 0 0.0 4.0 -1 42
- 1.900005 2 4 ping 64 ------- 0 0.0 4.0 -1 42
r 1.900005 5 2 ping 64 ------- 0 5.0 6.0 -1 43
r 1.90001 2 4 ping 64 ------- 0 0.0 4.0 -1 33
+ 1.90001 4 2 ping 64 ------- 0 4.0 0.0 -1 53
- 1.90001 4 2 ping 64 ------- 0 4.0 0.0 -1 53
r 1.900015 4 2 ping 64 ------- 0 4.0 0.0 -1 44
+ 1.900015 2 0 ping 64 ------- 0 4.0 0.0 -1 44
- 1.900015 2 0 ping 64 ------- 0 4.0 0.0 -1 44
r 1.90002 2 0 ping 64 ------- 0 4.0 0.0 -1 35
v 2 link-up 6 2
v 2 link-up 6 2
v 2 link-up 2 6
v 2 link-up 2 6
r 2.000005 0 2 ping 64 ------- 0 0.0 4.0 -1 45
+ 2.000005 2 4 ping 64 ------- 0 0.0 4.0 -1 45
- 2.000005 2 4 ping 64 ------- 0 0.0 4.0 -1 45
r 2.000005 5 2 ping 64 ------- 0 5.0 6.0 -1 46
+ 2.000005 2 6 ping 64 ------- 0 5.0 6.0 -1 46
- 2.000005 2 6 ping 64 ------- 0 5.0 6.0 -1 46
r 2.00001 2 4 ping 64 ------- 0 0.0 4.0 -1 36
+ 2.00001 4 2 ping 64 ------- 0 4.0 0.0 -1 54
- 2.00001 4 2 ping 64 ------- 0 4.0 0.0 -1 54
r 2.000015 4 2 ping 64 ------- 0 4.0 0.0 -1 47
+ 2.000015 2 0 ping 64 ------- 0 4.0 0.0 -1 47
- 2.000015 2 0 ping 64 ------- 0 4.0 0.0 -1 47
r 2.00002 2 0 ping 64 ------- 0 4.0 0.0 -1 38
r 2.100005 0 2 ping 64 ------- 0 0.0 4.0 -1 48
+ 2.100005 2 4 ping 64 ------- 0 0.0 4.0 -1 48
- 2.100005 2 4 ping 64 ------- 0 0.0 4.0 -1 48
r 2.100005 5 2 ping 64 ------- 0 5.0 6.0 -1 49
+ 2.100005 2 6 ping 64 ------- 0 5.0 6.0 -1 49
- 2.100005 2 6 ping 64 ------- 0 5.0 6.0 -1 49
r 2.10001 2 4 ping 64 ------- 0 0.0 4.0 -1 39
+ 2.10001 4 2 ping 64 ------- 0 4.0 0.0 -1 55
- 2.10001 4 2 ping 64 ------- 0 4.0 0.0 -1 55
r 2.100015 4 2 ping 64 ------- 0 4.0 0.0 -1 50
+ 2.100015 2 0 ping 64 ------- 0 4.0 0.0 -1 50
- 2.100015 2 0 ping 64 ------- 0 4.0 0.0 -1 50
r 2.10002 2 0 ping 64 ------- 0 4.0 0.0 -1 41
r 2.200005 0 2 ping 64 ------- 0 0.0 4.0 -1 51
+ 2.200005 2 4 ping 64 ------- 0 0.0 4.0 -1 51
- 2.200005 2 4 ping 64 ------- 0 0.0 4.0 -1 51
r 2.200005 5 2 ping 64 ------- 0 5.0 6.0 -1 52
+ 2.200005 2 6 ping 64 ------- 0 5.0 6.0 -1 52
- 2.200005 2 6 ping 64 ------- 0 5.0 6.0 -1 52
r 2.20001 2 4 ping 64 ------- 0 0.0 4.0 -1 42
+ 2.20001 4 2 ping 64 ------- 0 4.0 0.0 -1 56
- 2.20001 4 2 ping 64 ------- 0 4.0 0.0 -1 56
r 2.200015 4 2 ping 64 ------- 0 4.0 0.0 -1 53
+ 2.200015 2 0 ping 64 ------- 0 4.0 0.0 -1 53
- 2.200015 2 0 ping 64 ------- 0 4.0 0.0 -1 53
r 2.20002 2 0 ping 64 ------- 0 4.0 0.0 -1 44
r 2.30001 2 4 ping 64 ------- 0 0.0 4.0 -1 45
+ 2.30001 4 2 ping 64 ------- 0 4.0 0.0 -1 57
- 2.30001 4 2 ping 64 ------- 0 4.0 0.0 -1 57
r 2.30001 2 6 ping 64 ------- 0 5.0 6.0 -1 46
+ 2.30001 6 2 ping 64 ------- 0 6.0 5.0 -1 58
- 2.30001 6 2 ping 64 ------- 0 6.0 5.0 -1 58
r 2.300015 4 2 ping 64 ------- 0 4.0 0.0 -1 54
+ 2.300015 2 0 ping 64 ------- 0 4.0 0.0 -1 54
- 2.300015 2 0 ping 64 ------- 0 4.0 0.0 -1 54
r 2.30002 2 0 ping 64 ------- 0 4.0 0.0 -1 47
r 2.40001 2 4 ping 64 ------- 0 0.0 4.0 -1 48
+ 2.40001 4 2 ping 64 ------- 0 4.0 0.0 -1 59
- 2.40001 4 2 ping 64 ------- 0 4.0 0.0 -1 59
r 2.40001 2 6 ping 64 ------- 0 5.0 6.0 -1 49
+ 2.40001 6 2 ping 64 ------- 0 6.0 5.0 -1 60
- 2.40001 6 2 ping 64 ------- 0 6.0 5.0 -1 60
r 2.400015 4 2 ping 64 ------- 0 4.0 0.0 -1 55
+ 2.400015 2 0 ping 64 ------- 0 4.0 0.0 -1 55
- 2.400015 2 0 ping 64 ------- 0 4.0 0.0 -1 55
r 2.40002 2 0 ping 64 ------- 0 4.0 0.0 -1 50
r 2.50001 2 4 ping 64 ------- 0 0.0 4.0 -1 51
+ 2.50001 4 2 ping 64 ------- 0 4.0 0.0 -1 61
- 2.50001 4 2 ping 64 ------- 0 4.0 0.0 -1 61
r 2.50001 2 6 ping 64 ------- 0 5.0 6.0 -1 52
+ 2.50001 6 2 ping 64 ------- 0 6.0 5.0 -1 62
- 2.50001 6 2 ping 64 ------- 0 6.0 5.0 -1 62
r 2.500015 4 2 ping 64 ------- 0 4.0 0.0 -1 56
+ 2.500015 2 0 ping 64 ------- 0 4.0 0.0 -1 56
- 2.500015 2 0 ping 64 ------- 0 4.0 0.0 -1 56
r 2.50002 2 0 ping 64 ------- 0 4.0 0.0 -1 53
r 2.600015 4 2 ping 64 ------- 0 4.0 0.0 -1 57
+ 2.600015 2 0 ping 64 ------- 0 4.0 0.0 -1 57
- 2.600015 2 0 ping 64 ------- 0 4.0 0.0 -1 57
r 2.600015 6 2 ping 64 ------- 0 6.0 5.0 -1 58
+ 2.600015 2 5 ping 64 ------- 0 6.0 5.0 -1 58
- 2.600015 2 5 ping 64 ------- 0 6.0 5.0 -1 58
r 2.60002 2 0 ping 64 ------- 0 4.0 0.0 -1 54
r 2.700015 4 2 ping 64 ------- 0 4.0 0.0 -1 59
+ 2.700015 2 0 ping 64 ------- 0 4.0 0.0 -1 59
- 2.700015 2 0 ping 64 ------- 0 4.0 0.0 -1 59
r 2.700015 6 2 ping 64 ------- 0 6.0 5.0 -1 60
+ 2.700015 2 5 ping 64 ------- 0 6.0 5.0 -1 60
- 2.700015 2 5 ping 64 ------- 0 6.0 5.0 -1 60
r 2.70002 2 0 ping 64 ------- 0 4.0 0.0 -1 55
r 2.800015 4 2 ping 64 ------- 0 4.0 0.0 -1 61
+ 2.800015 2 0 ping 64 ------- 0 4.0 0.0 -1 61
- 2.800015 2 0 ping 64 ------- 0 4.0 0.0 -1 61
r 2.800015 6 2 ping 64 ------- 0 6.0 5.0 -1 62
+ 2.800015 2 5 ping 64 ------- 0 6.0 5.0 -1 62
- 2.800015 2 5 ping 64 ------- 0 6.0 5.0 -1 62
r 2.80002 2 0 ping 64 ------- 0 4.0 0.0 -1 56
r 2.90002 2 0 ping 64 ------- 0 4.0 0.0 -1 57
r 2.90002 2 5 ping 64 ------- 0 6.0 5.0 -1 58
r 3.00002 2 0 ping 64 ------- 0 4.0 0.0 -1 59
r 3.00002 2 5 ping 64 ------- 0 6.0 5.0 -1 60
r 3.10002 2 0 ping 64 ------- 0 4.0 0.0 -1 61
r 3.10002 2 5 ping 64 ------- 0 6.0 5.0 -1 62
