+ 0.01 0 2 tcp 40 ------- 0 0.0 3.0 0 0
- 0.01 0 2 tcp 40 ------- 0 0.0 3.0 0 0
+ 0.010008 1 2 tcp 40 ------- 0 1.0 3.1 0 1
- 0.010008 1 2 tcp 40 ------- 0 1.0 3.1 0 1
r 0.01116 0 2 tcp 40 ------- 0 0.0 3.0 0 0
+ 0.01116 2 3 tcp 40 ------- 0 0.0 3.0 0 0
- 0.01116 2 3 tcp 40 ------- 0 0.0 3.0 0 0
r 0.011168 1 2 tcp 40 ------- 0 1.0 3.1 0 1
+ 0.011168 2 3 tcp 40 ------- 0 1.0 3.1 0 1
- 0.01132 2 3 tcp 40 ------- 0 1.0 3.1 0 1
r 0.01232 2 3 tcp 40 ------- 0 0.0 3.0 0 0
+ 0.01232 3 2 ack 40 ------- 0 3.0 0.0 0 2
- 0.01232 3 2 ack 40 ------- 0 3.0 0.0 0 2
r 0.01248 2 3 tcp 40 ------- 0 1.0 3.1 0 1
+ 0.01248 3 2 ack 40 ------- 0 3.1 1.0 0 3
- 0.01248 3 2 ack 40 ------- 0 3.1 1.0 0 3
r 0.01348 3 2 ack 40 ------- 0 3.0 0.0 0 2
+ 0.01348 2 0 ack 40 ------- 0 3.0 0.0 0 2
- 0.01348 2 0 ack 40 ------- 0 3.0 0.0 0 2
r 0.01364 3 2 ack 40 ------- 0 3.1 1.0 0 3
+ 0.01364 2 1 ack 40 ------- 0 3.1 1.0 0 3
- 0.01364 2 1 ack 40 ------- 0 3.1 1.0 0 3
r 0.01464 2 0 ack 40 ------- 0 3.0 0.0 0 2
+ 0.01464 0 2 tcp 1040 ------- 0 0.0 3.0 1 4
- 0.01464 0 2 tcp 1040 ------- 0 0.0 3.0 1 4
+ 0.01464 0 2 tcp 1040 ------- 0 0.0 3.0 2 5
r 0.0148 2 1 ack 40 ------- 0 3.1 1.0 0 3
+ 0.0148 1 2 tcp 1040 ------- 0 1.0 3.1 1 6
- 0.0148 1 2 tcp 1040 ------- 0 1.0 3.1 1 6
+ 0.0148 1 2 tcp 1040 ------- 0 1.0 3.1 2 7
- 0.0188 0 2 tcp 1040 ------- 0 0.0 3.0 2 5
- 0.01896 1 2 tcp 1040 ------- 0 1.0 3.1 2 7
r 0.0198 0 2 tcp 1040 ------- 0 0.0 3.0 1 4
+ 0.0198 2 3 tcp 1040 ------- 0 0.0 3.0 1 4
- 0.0198 2 3 tcp 1040 ------- 0 0.0 3.0 1 4
r 0.01996 1 2 tcp 1040 ------- 0 1.0 3.1 1 6
+ 0.01996 2 3 tcp 1040 ------- 0 1.0 3.1 1 6
r 0.02396 0 2 tcp 1040 ------- 0 0.0 3.0 2 5
+ 0.02396 2 3 tcp 1040 ------- 0 0.0 3.0 2 5
- 0.02396 2 3 tcp 1040 ------- 0 1.0 3.1 1 6
r 0.02412 1 2 tcp 1040 ------- 0 1.0 3.1 2 7
+ 0.02412 2 3 tcp 1040 ------- 0 1.0 3.1 2 7
r 0.02496 2 3 tcp 1040 ------- 0 0.0 3.0 1 4
+ 0.02496 3 2 ack 40 ------- 0 3.0 0.0 1 8
- 0.02496 3 2 ack 40 ------- 0 3.0 0.0 1 8
r 0.02612 3 2 ack 40 ------- 0 3.0 0.0 1 8
+ 0.02612 2 0 ack 40 ------- 0 3.0 0.0 1 8
- 0.02612 2 0 ack 40 ------- 0 3.0 0.0 1 8
r 0.02728 2 0 ack 40 ------- 0 3.0 0.0 1 8
+ 0.02728 0 2 tcp 1040 ------- 0 0.0 3.0 3 9
- 0.02728 0 2 tcp 1040 ------- 0 0.0 3.0 3 9
+ 0.02728 0 2 tcp 1040 ------- 0 0.0 3.0 4 10
- 0.02812 2 3 tcp 1040 ------- 0 0.0 3.0 2 5
r 0.02912 2 3 tcp 1040 ------- 0 1.0 3.1 1 6
+ 0.02912 3 2 ack 40 ------- 0 3.1 1.0 1 11
- 0.02912 3 2 ack 40 ------- 0 3.1 1.0 1 11
r 0.03028 3 2 ack 40 ------- 0 3.1 1.0 1 11
+ 0.03028 2 1 ack 40 ------- 0 3.1 1.0 1 11
- 0.03028 2 1 ack 40 ------- 0 3.1 1.0 1 11
- 0.03144 0 2 tcp 1040 ------- 0 0.0 3.0 4 10
r 0.03144 2 1 ack 40 ------- 0 3.1 1.0 1 11
+ 0.03144 1 2 tcp 1040 ------- 0 1.0 3.1 3 12
- 0.03144 1 2 tcp 1040 ------- 0 1.0 3.1 3 12
+ 0.03144 1 2 tcp 1040 ------- 0 1.0 3.1 4 13
- 0.03228 2 3 tcp 1040 ------- 0 1.0 3.1 2 7
r 0.03244 0 2 tcp 1040 ------- 0 0.0 3.0 3 9
+ 0.03244 2 3 tcp 1040 ------- 0 0.0 3.0 3 9
r 0.03328 2 3 tcp 1040 ------- 0 0.0 3.0 2 5
+ 0.03328 3 2 ack 40 ------- 0 3.0 0.0 2 14
- 0.03328 3 2 ack 40 ------- 0 3.0 0.0 2 14
r 0.03444 3 2 ack 40 ------- 0 3.0 0.0 2 14
+ 0.03444 2 0 ack 40 ------- 0 3.0 0.0 2 14
- 0.03444 2 0 ack 40 ------- 0 3.0 0.0 2 14
- 0.0356 1 2 tcp 1040 ------- 0 1.0 3.1 4 13
r 0.0356 2 0 ack 40 ------- 0 3.0 0.0 2 14
+ 0.0356 0 2 tcp 1040 ------- 0 0.0 3.0 5 15
- 0.0356 0 2 tcp 1040 ------- 0 0.0 3.0 5 15
+ 0.0356 0 2 tcp 1040 ------- 0 0.0 3.0 6 16
- 0.03644 2 3 tcp 1040 ------- 0 0.0 3.0 3 9
r 0.0366 0 2 tcp 1040 ------- 0 0.0 3.0 4 10
+ 0.0366 2 3 tcp 1040 ------- 0 0.0 3.0 4 10
r 0.0366 1 2 tcp 1040 ------- 0 1.0 3.1 3 12
+ 0.0366 2 3 tcp 1040 ------- 0 1.0 3.1 3 12
r 0.03744 2 3 tcp 1040 ------- 0 1.0 3.1 2 7
+ 0.03744 3 2 ack 40 ------- 0 3.1 1.0 2 17
- 0.03744 3 2 ack 40 ------- 0 3.1 1.0 2 17
r 0.0386 3 2 ack 40 ------- 0 3.1 1.0 2 17
+ 0.0386 2 1 ack 40 ------- 0 3.1 1.0 2 17
- 0.0386 2 1 ack 40 ------- 0 3.1 1.0 2 17
- 0.03976 0 2 tcp 1040 ------- 0 0.0 3.0 6 16
r 0.03976 2 1 ack 40 ------- 0 3.1 1.0 2 17
+ 0.03976 1 2 tcp 1040 ------- 0 1.0 3.1 5 18
- 0.03976 1 2 tcp 1040 ------- 0 1.0 3.1 5 18
+ 0.03976 1 2 tcp 1040 ------- 0 1.0 3.1 6 19
- 0.0406 2 3 tcp 1040 ------- 0 0.0 3.0 4 10
r 0.04076 1 2 tcp 1040 ------- 0 1.0 3.1 4 13
+ 0.04076 2 3 tcp 1040 ------- 0 1.0 3.1 4 13
r 0.04076 0 2 tcp 1040 ------- 0 0.0 3.0 5 15
+ 0.04076 2 3 tcp 1040 ------- 0 0.0 3.0 5 15
r 0.0416 2 3 tcp 1040 ------- 0 0.0 3.0 3 9
+ 0.0416 3 2 ack 40 ------- 0 3.0 0.0 3 20
- 0.0416 3 2 ack 40 ------- 0 3.0 0.0 3 20
r 0.04276 3 2 ack 40 ------- 0 3.0 0.0 3 20
+ 0.04276 2 0 ack 40 ------- 0 3.0 0.0 3 20
- 0.04276 2 0 ack 40 ------- 0 3.0 0.0 3 20
- 0.04392 1 2 tcp 1040 ------- 0 1.0 3.1 6 19
r 0.04392 2 0 ack 40 ------- 0 3.0 0.0 3 20
+ 0.04392 0 2 tcp 1040 ------- 0 0.0 3.0 7 21
- 0.04392 0 2 tcp 1040 ------- 0 0.0 3.0 7 21
+ 0.04392 0 2 tcp 1040 ------- 0 0.0 3.0 8 22
- 0.04476 2 3 tcp 1040 ------- 0 1.0 3.1 3 12
r 0.04492 0 2 tcp 1040 ------- 0 0.0 3.0 6 16
+ 0.04492 2 3 tcp 1040 ------- 0 0.0 3.0 6 16
r 0.04492 1 2 tcp 1040 ------- 0 1.0 3.1 5 18
+ 0.04492 2 3 tcp 1040 ------- 0 1.0 3.1 5 18
r 0.04576 2 3 tcp 1040 ------- 0 0.0 3.0 4 10
+ 0.04576 3 2 ack 40 ------- 0 3.0 0.0 4 23
- 0.04576 3 2 ack 40 ------- 0 3.0 0.0 4 23
r 0.04692 3 2 ack 40 ------- 0 3.0 0.0 4 23
+ 0.04692 2 0 ack 40 ------- 0 3.0 0.0 4 23
- 0.04692 2 0 ack 40 ------- 0 3.0 0.0 4 23
- 0.04808 0 2 tcp 1040 ------- 0 0.0 3.0 8 22
r 0.04808 2 0 ack 40 ------- 0 3.0 0.0 4 23
+ 0.04808 0 2 tcp 1040 ------- 0 0.0 3.0 9 24
+ 0.04808 0 2 tcp 1040 ------- 0 0.0 3.0 10 25
- 0.04892 2 3 tcp 1040 ------- 0 1.0 3.1 4 13
r 0.04908 1 2 tcp 1040 ------- 0 1.0 3.1 6 19
+ 0.04908 2 3 tcp 1040 ------- 0 1.0 3.1 6 19
r 0.04908 0 2 tcp 1040 ------- 0 0.0 3.0 7 21
+ 0.04908 2 3 tcp 1040 ------- 0 0.0 3.0 7 21
r 0.04992 2 3 tcp 1040 ------- 0 1.0 3.1 3 12
+ 0.04992 3 2 ack 40 ------- 0 3.1 1.0 3 26
- 0.04992 3 2 ack 40 ------- 0 3.1 1.0 3 26
r 0.05108 3 2 ack 40 ------- 0 3.1 1.0 3 26
+ 0.05108 2 1 ack 40 ------- 0 3.1 1.0 3 26
- 0.05108 2 1 ack 40 ------- 0 3.1 1.0 3 26
- 0.05224 0 2 tcp 1040 ------- 0 0.0 3.0 9 24
r 0.05224 2 1 ack 40 ------- 0 3.1 1.0 3 26
+ 0.05224 1 2 tcp 1040 ------- 0 1.0 3.1 7 27
- 0.05224 1 2 tcp 1040 ------- 0 1.0 3.1 7 27
+ 0.05224 1 2 tcp 1040 ------- 0 1.0 3.1 8 28
- 0.05308 2 3 tcp 1040 ------- 0 0.0 3.0 5 15
r 0.05324 0 2 tcp 1040 ------- 0 0.0 3.0 8 22
+ 0.05324 2 3 tcp 1040 ------- 0 0.0 3.0 8 22
r 0.05408 2 3 tcp 1040 ------- 0 1.0 3.1 4 13
+ 0.05408 3 2 ack 40 ------- 0 3.1 1.0 4 29
- 0.05408 3 2 ack 40 ------- 0 3.1 1.0 4 29
r 0.05524 3 2 ack 40 ------- 0 3.1 1.0 4 29
+ 0.05524 2 1 ack 40 ------- 0 3.1 1.0 4 29
- 0.05524 2 1 ack 40 ------- 0 3.1 1.0 4 29
- 0.0564 0 2 tcp 1040 ------- 0 0.0 3.0 10 25
- 0.0564 1 2 tcp 1040 ------- 0 1.0 3.1 8 28
r 0.0564 2 1 ack 40 ------- 0 3.1 1.0 4 29
+ 0.0564 1 2 tcp 1040 ------- 0 1.0 3.1 9 30
+ 0.0564 1 2 tcp 1040 ------- 0 1.0 3.1 10 31
- 0.05724 2 3 tcp 1040 ------- 0 0.0 3.0 6 16
r 0.0574 0 2 tcp 1040 ------- 0 0.0 3.0 9 24
+ 0.0574 2 3 tcp 1040 ------- 0 0.0 3.0 9 24
r 0.0574 1 2 tcp 1040 ------- 0 1.0 3.1 7 27
+ 0.0574 2 3 tcp 1040 ------- 0 1.0 3.1 7 27
r 0.05824 2 3 tcp 1040 ------- 0 0.0 3.0 5 15
+ 0.05824 3 2 ack 40 ------- 0 3.0 0.0 5 32
- 0.05824 3 2 ack 40 ------- 0 3.0 0.0 5 32
r 0.0594 3 2 ack 40 ------- 0 3.0 0.0 5 32
+ 0.0594 2 0 ack 40 ------- 0 3.0 0.0 5 32
- 0.0594 2 0 ack 40 ------- 0 3.0 0.0 5 32
- 0.06056 1 2 tcp 1040 ------- 0 1.0 3.1 9 30
r 0.06056 2 0 ack 40 ------- 0 3.0 0.0 5 32
+ 0.06056 0 2 tcp 1040 ------- 0 0.0 3.0 11 33
- 0.06056 0 2 tcp 1040 ------- 0 0.0 3.0 11 33
+ 0.06056 0 2 tcp 1040 ------- 0 0.0 3.0 12 34
- 0.0614 2 3 tcp 1040 ------- 0 1.0 3.1 5 18
r 0.06156 0 2 tcp 1040 ------- 0 0.0 3.0 10 25
+ 0.06156 2 3 tcp 1040 ------- 0 0.0 3.0 10 25
r 0.06156 1 2 tcp 1040 ------- 0 1.0 3.1 8 28
+ 0.06156 2 3 tcp 1040 ------- 0 1.0 3.1 8 28
r 0.0624 2 3 tcp 1040 ------- 0 0.0 3.0 6 16
+ 0.0624 3 2 ack 40 ------- 0 3.0 0.0 6 35
- 0.0624 3 2 ack 40 ------- 0 3.0 0.0 6 35
r 0.06356 3 2 ack 40 ------- 0 3.0 0.0 6 35
+ 0.06356 2 0 ack 40 ------- 0 3.0 0.0 6 35
- 0.06356 2 0 ack 40 ------- 0 3.0 0.0 6 35
r 0.06472 2 0 ack 40 ------- 0 3.0 0.0 6 35
+ 0.06472 0 2 tcp 1040 ------- 0 0.0 3.0 13 36
+ 0.06472 0 2 tcp 1040 ------- 0 0.0 3.0 14 37
- 0.06472 1 2 tcp 1040 ------- 0 1.0 3.1 10 31
- 0.06472 0 2 tcp 1040 ------- 0 0.0 3.0 12 34
- 0.06556 2 3 tcp 1040 ------- 0 1.0 3.1 6 19
r 0.06572 1 2 tcp 1040 ------- 0 1.0 3.1 9 30
+ 0.06572 2 3 tcp 1040 ------- 0 1.0 3.1 9 30
r 0.06572 0 2 tcp 1040 ------- 0 0.0 3.0 11 33
+ 0.06572 2 3 tcp 1040 ------- 0 0.0 3.0 11 33
r 0.06656 2 3 tcp 1040 ------- 0 1.0 3.1 5 18
+ 0.06656 3 2 ack 40 ------- 0 3.1 1.0 5 38
- 0.06656 3 2 ack 40 ------- 0 3.1 1.0 5 38
r 0.06772 3 2 ack 40 ------- 0 3.1 1.0 5 38
+ 0.06772 2 1 ack 40 ------- 0 3.1 1.0 5 38
- 0.06772 2 1 ack 40 ------- 0 3.1 1.0 5 38
r 0.06888 2 1 ack 40 ------- 0 3.1 1.0 5 38
+ 0.06888 1 2 tcp 1040 ------- 0 1.0 3.1 11 39
+ 0.06888 1 2 tcp 1040 ------- 0 1.0 3.1 12 40
- 0.06888 1 2 tcp 1040 ------- 0 1.0 3.1 11 39
- 0.06888 0 2 tcp 1040 ------- 0 0.0 3.0 13 36
- 0.06972 2 3 tcp 1040 ------- 0 0.0 3.0 7 21
r 0.06988 1 2 tcp 1040 ------- 0 1.0 3.1 10 31
+ 0.06988 2 3 tcp 1040 ------- 0 1.0 3.1 10 31
r 0.06988 0 2 tcp 1040 ------- 0 0.0 3.0 12 34
+ 0.06988 2 3 tcp 1040 ------- 0 0.0 3.0 12 34
r 0.07072 2 3 tcp 1040 ------- 0 1.0 3.1 6 19
+ 0.07072 3 2 ack 40 ------- 0 3.1 1.0 6 41
- 0.07072 3 2 ack 40 ------- 0 3.1 1.0 6 41
r 0.07188 3 2 ack 40 ------- 0 3.1 1.0 6 41
+ 0.07188 2 1 ack 40 ------- 0 3.1 1.0 6 41
- 0.07188 2 1 ack 40 ------- 0 3.1 1.0 6 41
r 0.07304 2 1 ack 40 ------- 0 3.1 1.0 6 41
+ 0.07304 1 2 tcp 1040 ------- 0 1.0 3.1 13 42
+ 0.07304 1 2 tcp 1040 ------- 0 1.0 3.1 14 43
- 0.07304 1 2 tcp 1040 ------- 0 1.0 3.1 12 40
- 0.07304 0 2 tcp 1040 ------- 0 0.0 3.0 14 37
- 0.07388 2 3 tcp 1040 ------- 0 0.0 3.0 8 22
r 0.07404 1 2 tcp 1040 ------- 0 1.0 3.1 11 39
+ 0.07404 2 3 tcp 1040 ------- 0 1.0 3.1 11 39
r 0.07404 0 2 tcp 1040 ------- 0 0.0 3.0 13 36
+ 0.07404 2 3 tcp 1040 ------- 0 0.0 3.0 13 36
r 0.07488 2 3 tcp 1040 ------- 0 0.0 3.0 7 21
+ 0.07488 3 2 ack 40 ------- 0 3.0 0.0 7 44
- 0.07488 3 2 ack 40 ------- 0 3.0 0.0 7 44
r 0.07604 3 2 ack 40 ------- 0 3.0 0.0 7 44
+ 0.07604 2 0 ack 40 ------- 0 3.0 0.0 7 44
- 0.07604 2 0 ack 40 ------- 0 3.0 0.0 7 44
r 0.0772 2 0 ack 40 ------- 0 3.0 0.0 7 44
+ 0.0772 0 2 tcp 1040 ------- 0 0.0 3.0 15 45
+ 0.0772 0 2 tcp 1040 ------- 0 0.0 3.0 16 46
- 0.0772 1 2 tcp 1040 ------- 0 1.0 3.1 13 42
- 0.0772 0 2 tcp 1040 ------- 0 0.0 3.0 15 45
- 0.07804 2 3 tcp 1040 ------- 0 0.0 3.0 9 24
r 0.0782 1 2 tcp 1040 ------- 0 1.0 3.1 12 40
+ 0.0782 2 3 tcp 1040 ------- 0 1.0 3.1 12 40
r 0.0782 0 2 tcp 1040 ------- 0 0.0 3.0 14 37
+ 0.0782 2 3 tcp 1040 ------- 0 0.0 3.0 14 37
r 0.07904 2 3 tcp 1040 ------- 0 0.0 3.0 8 22
+ 0.07904 3 2 ack 40 ------- 0 3.0 0.0 8 47
- 0.07904 3 2 ack 40 ------- 0 3.0 0.0 8 47
r 0.0802 3 2 ack 40 ------- 0 3.0 0.0 8 47
+ 0.0802 2 0 ack 40 ------- 0 3.0 0.0 8 47
- 0.0802 2 0 ack 40 ------- 0 3.0 0.0 8 47
r 0.08136 2 0 ack 40 ------- 0 3.0 0.0 8 47
+ 0.08136 0 2 tcp 1040 ------- 0 0.0 3.0 17 48
+ 0.08136 0 2 tcp 1040 ------- 0 0.0 3.0 18 49
- 0.08136 1 2 tcp 1040 ------- 0 1.0 3.1 14 43
- 0.08136 0 2 tcp 1040 ------- 0 0.0 3.0 16 46
- 0.0822 2 3 tcp 1040 ------- 0 1.0 3.1 7 27
r 0.08236 1 2 tcp 1040 ------- 0 1.0 3.1 13 42
+ 0.08236 2 3 tcp 1040 ------- 0 1.0 3.1 13 42
r 0.08236 0 2 tcp 1040 ------- 0 0.0 3.0 15 45
+ 0.08236 2 3 tcp 1040 ------- 0 0.0 3.0 15 45
r 0.0832 2 3 tcp 1040 ------- 0 0.0 3.0 9 24
+ 0.0832 3 2 ack 40 ------- 0 3.0 0.0 9 50
- 0.0832 3 2 ack 40 ------- 0 3.0 0.0 9 50
r 0.08436 3 2 ack 40 ------- 0 3.0 0.0 9 50
+ 0.08436 2 0 ack 40 ------- 0 3.0 0.0 9 50
- 0.08436 2 0 ack 40 ------- 0 3.0 0.0 9 50
r 0.08552 2 0 ack 40 ------- 0 3.0 0.0 9 50
+ 0.08552 0 2 tcp 1040 ------- 0 0.0 3.0 19 51
+ 0.08552 0 2 tcp 1040 ------- 0 0.0 3.0 20 52
- 0.08552 0 2 tcp 1040 ------- 0 0.0 3.0 17 48
- 0.08636 2 3 tcp 1040 ------- 0 0.0 3.0 10 25
r 0.08652 1 2 tcp 1040 ------- 0 1.0 3.1 14 43
+ 0.08652 2 3 tcp 1040 ------- 0 1.0 3.1 14 43
r 0.08652 0 2 tcp 1040 ------- 0 0.0 3.0 16 46
+ 0.08652 2 3 tcp 1040 ------- 0 0.0 3.0 16 46
r 0.08736 2 3 tcp 1040 ------- 0 1.0 3.1 7 27
+ 0.08736 3 2 ack 40 ------- 0 3.1 1.0 7 53
- 0.08736 3 2 ack 40 ------- 0 3.1 1.0 7 53
r 0.08852 3 2 ack 40 ------- 0 3.1 1.0 7 53
+ 0.08852 2 1 ack 40 ------- 0 3.1 1.0 7 53
- 0.08852 2 1 ack 40 ------- 0 3.1 1.0 7 53
r 0.08968 2 1 ack 40 ------- 0 3.1 1.0 7 53
+ 0.08968 1 2 tcp 1040 ------- 0 1.0 3.1 15 54
- 0.08968 1 2 tcp 1040 ------- 0 1.0 3.1 15 54
+ 0.08968 1 2 tcp 1040 ------- 0 1.0 3.1 16 55
- 0.08968 0 2 tcp 1040 ------- 0 0.0 3.0 18 49
- 0.09052 2 3 tcp 1040 ------- 0 1.0 3.1 8 28
r 0.09068 0 2 tcp 1040 ------- 0 0.0 3.0 17 48
+ 0.09068 2 3 tcp 1040 ------- 0 0.0 3.0 17 48
r 0.09152 2 3 tcp 1040 ------- 0 0.0 3.0 10 25
+ 0.09152 3 2 ack 40 ------- 0 3.0 0.0 10 56
- 0.09152 3 2 ack 40 ------- 0 3.0 0.0 10 56
r 0.09268 3 2 ack 40 ------- 0 3.0 0.0 10 56
+ 0.09268 2 0 ack 40 ------- 0 3.0 0.0 10 56
- 0.09268 2 0 ack 40 ------- 0 3.0 0.0 10 56
- 0.09384 1 2 tcp 1040 ------- 0 1.0 3.1 16 55
r 0.09384 2 0 ack 40 ------- 0 3.0 0.0 10 56
+ 0.09384 0 2 tcp 1040 ------- 0 0.0 3.0 21 57
+ 0.09384 0 2 tcp 1040 ------- 0 0.0 3.0 22 58
- 0.09384 0 2 tcp 1040 ------- 0 0.0 3.0 19 51
- 0.09468 2 3 tcp 1040 ------- 0 1.0 3.1 9 30
r 0.09484 1 2 tcp 1040 ------- 0 1.0 3.1 15 54
+ 0.09484 2 3 tcp 1040 ------- 0 1.0 3.1 15 54
r 0.09484 0 2 tcp 1040 ------- 0 0.0 3.0 18 49
+ 0.09484 2 3 tcp 1040 ------- 0 0.0 3.0 18 49
r 0.09568 2 3 tcp 1040 ------- 0 1.0 3.1 8 28
+ 0.09568 3 2 ack 40 ------- 0 3.1 1.0 8 59
- 0.09568 3 2 ack 40 ------- 0 3.1 1.0 8 59
r 0.09684 3 2 ack 40 ------- 0 3.1 1.0 8 59
+ 0.09684 2 1 ack 40 ------- 0 3.1 1.0 8 59
- 0.09684 2 1 ack 40 ------- 0 3.1 1.0 8 59
r 0.098 2 1 ack 40 ------- 0 3.1 1.0 8 59
+ 0.098 1 2 tcp 1040 ------- 0 1.0 3.1 17 60
- 0.098 1 2 tcp 1040 ------- 0 1.0 3.1 17 60
+ 0.098 1 2 tcp 1040 ------- 0 1.0 3.1 18 61
- 0.098 0 2 tcp 1040 ------- 0 0.0 3.0 20 52
- 0.09884 2 3 tcp 1040 ------- 0 0.0 3.0 11 33
r 0.099 1 2 tcp 1040 ------- 0 1.0 3.1 16 55
+ 0.099 2 3 tcp 1040 ------- 0 1.0 3.1 16 55
r 0.099 0 2 tcp 1040 ------- 0 0.0 3.0 19 51
+ 0.099 2 3 tcp 1040 ------- 0 0.0 3.0 19 51
r 0.09984 2 3 tcp 1040 ------- 0 1.0 3.1 9 30
+ 0.09984 3 2 ack 40 ------- 0 3.1 1.0 9 62
- 0.09984 3 2 ack 40 ------- 0 3.1 1.0 9 62
r 0.101 3 2 ack 40 ------- 0 3.1 1.0 9 62
+ 0.101 2 1 ack 40 ------- 0 3.1 1.0 9 62
- 0.101 2 1 ack 40 ------- 0 3.1 1.0 9 62
- 0.10216 1 2 tcp 1040 ------- 0 1.0 3.1 18 61
r 0.10216 2 1 ack 40 ------- 0 3.1 1.0 9 62
+ 0.10216 1 2 tcp 1040 ------- 0 1.0 3.1 19 63
+ 0.10216 1 2 tcp 1040 ------- 0 1.0 3.1 20 64
- 0.10216 0 2 tcp 1040 ------- 0 0.0 3.0 21 57
- 0.103 2 3 tcp 1040 ------- 0 1.0 3.1 10 31
r 0.10316 1 2 tcp 1040 ------- 0 1.0 3.1 17 60
+ 0.10316 2 3 tcp 1040 ------- 0 1.0 3.1 17 60
r 0.10316 0 2 tcp 1040 ------- 0 0.0 3.0 20 52
+ 0.10316 2 3 tcp 1040 ------- 0 0.0 3.0 20 52
r 0.104 2 3 tcp 1040 ------- 0 0.0 3.0 11 33
+ 0.104 3 2 ack 40 ------- 0 3.0 0.0 11 65
- 0.104 3 2 ack 40 ------- 0 3.0 0.0 11 65
r 0.10516 3 2 ack 40 ------- 0 3.0 0.0 11 65
+ 0.10516 2 0 ack 40 ------- 0 3.0 0.0 11 65
- 0.10516 2 0 ack 40 ------- 0 3.0 0.0 11 65
- 0.10632 1 2 tcp 1040 ------- 0 1.0 3.1 19 63
r 0.10632 2 0 ack 40 ------- 0 3.0 0.0 11 65
+ 0.10632 0 2 tcp 1040 ------- 0 0.0 3.0 23 66
+ 0.10632 0 2 tcp 1040 ------- 0 0.0 3.0 24 67
- 0.10632 0 2 tcp 1040 ------- 0 0.0 3.0 22 58
- 0.10716 2 3 tcp 1040 ------- 0 0.0 3.0 12 34
r 0.10732 1 2 tcp 1040 ------- 0 1.0 3.1 18 61
+ 0.10732 2 3 tcp 1040 ------- 0 1.0 3.1 18 61
r 0.10732 0 2 tcp 1040 ------- 0 0.0 3.0 21 57
+ 0.10732 2 3 tcp 1040 ------- 0 0.0 3.0 21 57
r 0.10816 2 3 tcp 1040 ------- 0 1.0 3.1 10 31
+ 0.10816 3 2 ack 40 ------- 0 3.1 1.0 10 68
- 0.10816 3 2 ack 40 ------- 0 3.1 1.0 10 68
r 0.10932 3 2 ack 40 ------- 0 3.1 1.0 10 68
+ 0.10932 2 1 ack 40 ------- 0 3.1 1.0 10 68
- 0.10932 2 1 ack 40 ------- 0 3.1 1.0 10 68
- 0.11048 1 2 tcp 1040 ------- 0 1.0 3.1 20 64
r 0.11048 2 1 ack 40 ------- 0 3.1 1.0 10 68
+ 0.11048 1 2 tcp 1040 ------- 0 1.0 3.1 21 69
+ 0.11048 1 2 tcp 1040 ------- 0 1.0 3.1 22 70
- 0.11048 0 2 tcp 1040 ------- 0 0.0 3.0 23 66
- 0.11132 2 3 tcp 1040 ------- 0 1.0 3.1 11 39
r 0.11148 1 2 tcp 1040 ------- 0 1.0 3.1 19 63
+ 0.11148 2 3 tcp 1040 ------- 0 1.0 3.1 19 63
r 0.11148 0 2 tcp 1040 ------- 0 0.0 3.0 22 58
+ 0.11148 2 3 tcp 1040 ------- 0 0.0 3.0 22 58
r 0.11232 2 3 tcp 1040 ------- 0 0.0 3.0 12 34
+ 0.11232 3 2 ack 40 ------- 0 3.0 0.0 12 71
- 0.11232 3 2 ack 40 ------- 0 3.0 0.0 12 71
r 0.11348 3 2 ack 40 ------- 0 3.0 0.0 12 71
+ 0.11348 2 0 ack 40 ------- 0 3.0 0.0 12 71
- 0.11348 2 0 ack 40 ------- 0 3.0 0.0 12 71
- 0.11464 1 2 tcp 1040 ------- 0 1.0 3.1 21 69
r 0.11464 2 0 ack 40 ------- 0 3.0 0.0 12 71
+ 0.11464 0 2 tcp 1040 ------- 0 0.0 3.0 25 72
+ 0.11464 0 2 tcp 1040 ------- 0 0.0 3.0 26 73
- 0.11464 0 2 tcp 1040 ------- 0 0.0 3.0 24 67
- 0.11548 2 3 tcp 1040 ------- 0 0.0 3.0 13 36
r 0.11564 1 2 tcp 1040 ------- 0 1.0 3.1 20 64
+ 0.11564 2 3 tcp 1040 ------- 0 1.0 3.1 20 64
r 0.11564 0 2 tcp 1040 ------- 0 0.0 3.0 23 66
+ 0.11564 2 3 tcp 1040 ------- 0 0.0 3.0 23 66
r 0.11648 2 3 tcp 1040 ------- 0 1.0 3.1 11 39
+ 0.11648 3 2 ack 40 ------- 0 3.1 1.0 11 74
- 0.11648 3 2 ack 40 ------- 0 3.1 1.0 11 74
r 0.11764 3 2 ack 40 ------- 0 3.1 1.0 11 74
+ 0.11764 2 1 ack 40 ------- 0 3.1 1.0 11 74
- 0.11764 2 1 ack 40 ------- 0 3.1 1.0 11 74
- 0.1188 1 2 tcp 1040 ------- 0 1.0 3.1 22 70
r 0.1188 2 1 ack 40 ------- 0 3.1 1.0 11 74
+ 0.1188 1 2 tcp 1040 ------- 0 1.0 3.1 23 75
+ 0.1188 1 2 tcp 1040 ------- 0 1.0 3.1 24 76
- 0.1188 0 2 tcp 1040 ------- 0 0.0 3.0 25 72
- 0.11964 2 3 tcp 1040 ------- 0 1.0 3.1 12 40
r 0.1198 1 2 tcp 1040 ------- 0 1.0 3.1 21 69
+ 0.1198 2 3 tcp 1040 ------- 0 1.0 3.1 21 69
r 0.1198 0 2 tcp 1040 ------- 0 0.0 3.0 24 67
+ 0.1198 2 3 tcp 1040 ------- 0 0.0 3.0 24 67
r 0.12064 2 3 tcp 1040 ------- 0 0.0 3.0 13 36
+ 0.12064 3 2 ack 40 ------- 0 3.0 0.0 13 77
- 0.12064 3 2 ack 40 ------- 0 3.0 0.0 13 77
r 0.1218 3 2 ack 40 ------- 0 3.0 0.0 13 77
+ 0.1218 2 0 ack 40 ------- 0 3.0 0.0 13 77
- 0.1218 2 0 ack 40 ------- 0 3.0 0.0 13 77
- 0.12296 1 2 tcp 1040 ------- 0 1.0 3.1 23 75
r 0.12296 2 0 ack 40 ------- 0 3.0 0.0 13 77
+ 0.12296 0 2 tcp 1040 ------- 0 0.0 3.0 27 78
+ 0.12296 0 2 tcp 1040 ------- 0 0.0 3.0 28 79
- 0.12296 0 2 tcp 1040 ------- 0 0.0 3.0 26 73
- 0.1238 2 3 tcp 1040 ------- 0 0.0 3.0 14 37
r 0.12396 1 2 tcp 1040 ------- 0 1.0 3.1 22 70
+ 0.12396 2 3 tcp 1040 ------- 0 1.0 3.1 22 70
r 0.12396 0 2 tcp 1040 ------- 0 0.0 3.0 25 72
+ 0.12396 2 3 tcp 1040 ------- 0 0.0 3.0 25 72
r 0.1248 2 3 tcp 1040 ------- 0 1.0 3.1 12 40
+ 0.1248 3 2 ack 40 ------- 0 3.1 1.0 12 80
- 0.1248 3 2 ack 40 ------- 0 3.1 1.0 12 80
r 0.12596 3 2 ack 40 ------- 0 3.1 1.0 12 80
+ 0.12596 2 1 ack 40 ------- 0 3.1 1.0 12 80
- 0.12596 2 1 ack 40 ------- 0 3.1 1.0 12 80
- 0.12712 1 2 tcp 1040 ------- 0 1.0 3.1 24 76
r 0.12712 2 1 ack 40 ------- 0 3.1 1.0 12 80
+ 0.12712 1 2 tcp 1040 ------- 0 1.0 3.1 25 81
+ 0.12712 1 2 tcp 1040 ------- 0 1.0 3.1 26 82
- 0.12712 0 2 tcp 1040 ------- 0 0.0 3.0 27 78
- 0.12796 2 3 tcp 1040 ------- 0 1.0 3.1 13 42
r 0.12812 1 2 tcp 1040 ------- 0 1.0 3.1 23 75
+ 0.12812 2 3 tcp 1040 ------- 0 1.0 3.1 23 75
r 0.12812 0 2 tcp 1040 ------- 0 0.0 3.0 26 73
+ 0.12812 2 3 tcp 1040 ------- 0 0.0 3.0 26 73
r 0.12896 2 3 tcp 1040 ------- 0 0.0 3.0 14 37
+ 0.12896 3 2 ack 40 ------- 0 3.0 0.0 14 83
- 0.12896 3 2 ack 40 ------- 0 3.0 0.0 14 83
r 0.13012 3 2 ack 40 ------- 0 3.0 0.0 14 83
+ 0.13012 2 0 ack 40 ------- 0 3.0 0.0 14 83
- 0.13012 2 0 ack 40 ------- 0 3.0 0.0 14 83
- 0.13128 1 2 tcp 1040 ------- 0 1.0 3.1 25 81
r 0.13128 2 0 ack 40 ------- 0 3.0 0.0 14 83
+ 0.13128 0 2 tcp 1040 ------- 0 0.0 3.0 29 84
+ 0.13128 0 2 tcp 1040 ------- 0 0.0 3.0 30 85
- 0.13128 0 2 tcp 1040 ------- 0 0.0 3.0 28 79
- 0.13212 2 3 tcp 1040 ------- 0 0.0 3.0 15 45
r 0.13228 1 2 tcp 1040 ------- 0 1.0 3.1 24 76
+ 0.13228 2 3 tcp 1040 ------- 0 1.0 3.1 24 76
r 0.13228 0 2 tcp 1040 ------- 0 0.0 3.0 27 78
+ 0.13228 2 3 tcp 1040 ------- 0 0.0 3.0 27 78
r 0.13312 2 3 tcp 1040 ------- 0 1.0 3.1 13 42
+ 0.13312 3 2 ack 40 ------- 0 3.1 1.0 13 86
- 0.13312 3 2 ack 40 ------- 0 3.1 1.0 13 86
r 0.13428 3 2 ack 40 ------- 0 3.1 1.0 13 86
+ 0.13428 2 1 ack 40 ------- 0 3.1 1.0 13 86
- 0.13428 2 1 ack 40 ------- 0 3.1 1.0 13 86
- 0.13544 1 2 tcp 1040 ------- 0 1.0 3.1 26 82
r 0.13544 2 1 ack 40 ------- 0 3.1 1.0 13 86
+ 0.13544 1 2 tcp 1040 ------- 0 1.0 3.1 27 87
+ 0.13544 1 2 tcp 1040 ------- 0 1.0 3.1 28 88
- 0.13544 0 2 tcp 1040 ------- 0 0.0 3.0 29 84
- 0.13628 2 3 tcp 1040 ------- 0 1.0 3.1 14 43
r 0.13644 1 2 tcp 1040 ------- 0 1.0 3.1 25 81
+ 0.13644 2 3 tcp 1040 ------- 0 1.0 3.1 25 81
r 0.13644 0 2 tcp 1040 ------- 0 0.0 3.0 28 79
+ 0.13644 2 3 tcp 1040 ------- 0 0.0 3.0 28 79
r 0.13728 2 3 tcp 1040 ------- 0 0.0 3.0 15 45
+ 0.13728 3 2 ack 40 ------- 0 3.0 0.0 15 89
- 0.13728 3 2 ack 40 ------- 0 3.0 0.0 15 89
r 0.13844 3 2 ack 40 ------- 0 3.0 0.0 15 89
+ 0.13844 2 0 ack 40 ------- 0 3.0 0.0 15 89
- 0.13844 2 0 ack 40 ------- 0 3.0 0.0 15 89
- 0.1396 1 2 tcp 1040 ------- 0 1.0 3.1 27 87
r 0.1396 2 0 ack 40 ------- 0 3.0 0.0 15 89
+ 0.1396 0 2 tcp 1040 ------- 0 0.0 3.0 31 90
+ 0.1396 0 2 tcp 1040 ------- 0 0.0 3.0 32 91
- 0.1396 0 2 tcp 1040 ------- 0 0.0 3.0 30 85
- 0.14044 2 3 tcp 1040 ------- 0 0.0 3.0 16 46
r 0.1406 1 2 tcp 1040 ------- 0 1.0 3.1 26 82
+ 0.1406 2 3 tcp 1040 ------- 0 1.0 3.1 26 82
r 0.1406 0 2 tcp 1040 ------- 0 0.0 3.0 29 84
+ 0.1406 2 3 tcp 1040 ------- 0 0.0 3.0 29 84
r 0.14144 2 3 tcp 1040 ------- 0 1.0 3.1 14 43
+ 0.14144 3 2 ack 40 ------- 0 3.1 1.0 14 92
- 0.14144 3 2 ack 40 ------- 0 3.1 1.0 14 92
r 0.1426 3 2 ack 40 ------- 0 3.1 1.0 14 92
+ 0.1426 2 1 ack 40 ------- 0 3.1 1.0 14 92
- 0.1426 2 1 ack 40 ------- 0 3.1 1.0 14 92
- 0.14376 1 2 tcp 1040 ------- 0 1.0 3.1 28 88
r 0.14376 2 1 ack 40 ------- 0 3.1 1.0 14 92
+ 0.14376 1 2 tcp 1040 ------- 0 1.0 3.1 29 93
+ 0.14376 1 2 tcp 1040 ------- 0 1.0 3.1 30 94
- 0.14376 0 2 tcp 1040 ------- 0 0.0 3.0 31 90
- 0.1446 2 3 tcp 1040 ------- 0 0.0 3.0 17 48
r 0.14476 1 2 tcp 1040 ------- 0 1.0 3.1 27 87
+ 0.14476 2 3 tcp 1040 ------- 0 1.0 3.1 27 87
r 0.14476 0 2 tcp 1040 ------- 0 0.0 3.0 30 85
+ 0.14476 2 3 tcp 1040 ------- 0 0.0 3.0 30 85
r 0.1456 2 3 tcp 1040 ------- 0 0.0 3.0 16 46
+ 0.1456 3 2 ack 40 ------- 0 3.0 0.0 16 95
- 0.1456 3 2 ack 40 ------- 0 3.0 0.0 16 95
r 0.14676 3 2 ack 40 ------- 0 3.0 0.0 16 95
+ 0.14676 2 0 ack 40 ------- 0 3.0 0.0 16 95
- 0.14676 2 0 ack 40 ------- 0 3.0 0.0 16 95
- 0.14792 1 2 tcp 1040 ------- 0 1.0 3.1 29 93
r 0.14792 2 0 ack 40 ------- 0 3.0 0.0 16 95
+ 0.14792 0 2 tcp 1040 ------- 0 0.0 3.0 33 96
+ 0.14792 0 2 tcp 1040 ------- 0 0.0 3.0 34 97
- 0.14792 0 2 tcp 1040 ------- 0 0.0 3.0 32 91
- 0.14876 2 3 tcp 1040 ------- 0 1.0 3.1 15 54
r 0.14892 1 2 tcp 1040 ------- 0 1.0 3.1 28 88
+ 0.14892 2 3 tcp 1040 ------- 0 1.0 3.1 28 88
r 0.14892 0 2 tcp 1040 ------- 0 0.0 3.0 31 90
+ 0.14892 2 3 tcp 1040 ------- 0 0.0 3.0 31 90
r 0.14976 2 3 tcp 1040 ------- 0 0.0 3.0 17 48
+ 0.14976 3 2 ack 40 ------- 0 3.0 0.0 17 98
- 0.14976 3 2 ack 40 ------- 0 3.0 0.0 17 98
r 0.15092 3 2 ack 40 ------- 0 3.0 0.0 17 98
+ 0.15092 2 0 ack 40 ------- 0 3.0 0.0 17 98
- 0.15092 2 0 ack 40 ------- 0 3.0 0.0 17 98
- 0.15208 1 2 tcp 1040 ------- 0 1.0 3.1 30 94
r 0.15208 2 0 ack 40 ------- 0 3.0 0.0 17 98
+ 0.15208 0 2 tcp 1040 ------- 0 0.0 3.0 35 99
+ 0.15208 0 2 tcp 1040 ------- 0 0.0 3.0 36 100
- 0.15208 0 2 tcp 1040 ------- 0 0.0 3.0 33 96
- 0.15292 2 3 tcp 1040 ------- 0 0.0 3.0 18 49
r 0.15308 1 2 tcp 1040 ------- 0 1.0 3.1 29 93
+ 0.15308 2 3 tcp 1040 ------- 0 1.0 3.1 29 93
r 0.15308 0 2 tcp 1040 ------- 0 0.0 3.0 32 91
+ 0.15308 2 3 tcp 1040 ------- 0 0.0 3.0 32 91
r 0.15392 2 3 tcp 1040 ------- 0 1.0 3.1 15 54
+ 0.15392 3 2 ack 40 ------- 0 3.1 1.0 15 101
- 0.15392 3 2 ack 40 ------- 0 3.1 1.0 15 101
r 0.15508 3 2 ack 40 ------- 0 3.1 1.0 15 101
+ 0.15508 2 1 ack 40 ------- 0 3.1 1.0 15 101
- 0.15508 2 1 ack 40 ------- 0 3.1 1.0 15 101
r 0.15624 2 1 ack 40 ------- 0 3.1 1.0 15 101
+ 0.15624 1 2 tcp 1040 ------- 0 1.0 3.1 31 102
- 0.15624 1 2 tcp 1040 ------- 0 1.0 3.1 31 102
+ 0.15624 1 2 tcp 1040 ------- 0 1.0 3.1 32 103
- 0.15624 0 2 tcp 1040 ------- 0 0.0 3.0 34 97
- 0.15708 2 3 tcp 1040 ------- 0 1.0 3.1 16 55
r 0.15724 1 2 tcp 1040 ------- 0 1.0 3.1 30 94
+ 0.15724 2 3 tcp 1040 ------- 0 1.0 3.1 30 94
r 0.15724 0 2 tcp 1040 ------- 0 0.0 3.0 33 96
+ 0.15724 2 3 tcp 1040 ------- 0 0.0 3.0 33 96
r 0.15808 2 3 tcp 1040 ------- 0 0.0 3.0 18 49
+ 0.15808 3 2 ack 40 ------- 0 3.0 0.0 18 104
- 0.15808 3 2 ack 40 ------- 0 3.0 0.0 18 104
r 0.15924 3 2 ack 40 ------- 0 3.0 0.0 18 104
+ 0.15924 2 0 ack 40 ------- 0 3.0 0.0 18 104
- 0.15924 2 0 ack 40 ------- 0 3.0 0.0 18 104
- 0.1604 1 2 tcp 1040 ------- 0 1.0 3.1 32 103
r 0.1604 2 0 ack 40 ------- 0 3.0 0.0 18 104
+ 0.1604 0 2 tcp 1040 ------- 0 0.0 3.0 37 105
+ 0.1604 0 2 tcp 1040 ------- 0 0.0 3.0 38 106
- 0.1604 0 2 tcp 1040 ------- 0 0.0 3.0 35 99
- 0.16124 2 3 tcp 1040 ------- 0 0.0 3.0 19 51
r 0.1614 1 2 tcp 1040 ------- 0 1.0 3.1 31 102
+ 0.1614 2 3 tcp 1040 ------- 0 1.0 3.1 31 102
r 0.1614 0 2 tcp 1040 ------- 0 0.0 3.0 34 97
+ 0.1614 2 3 tcp 1040 ------- 0 0.0 3.0 34 97
r 0.16224 2 3 tcp 1040 ------- 0 1.0 3.1 16 55
+ 0.16224 3 2 ack 40 ------- 0 3.1 1.0 16 107
- 0.16224 3 2 ack 40 ------- 0 3.1 1.0 16 107
r 0.1634 3 2 ack 40 ------- 0 3.1 1.0 16 107
+ 0.1634 2 1 ack 40 ------- 0 3.1 1.0 16 107
- 0.1634 2 1 ack 40 ------- 0 3.1 1.0 16 107
r 0.16456 2 1 ack 40 ------- 0 3.1 1.0 16 107
+ 0.16456 1 2 tcp 1040 ------- 0 1.0 3.1 33 108
- 0.16456 1 2 tcp 1040 ------- 0 1.0 3.1 33 108
+ 0.16456 1 2 tcp 1040 ------- 0 1.0 3.1 34 109
- 0.16456 0 2 tcp 1040 ------- 0 0.0 3.0 36 100
- 0.1654 2 3 tcp 1040 ------- 0 1.0 3.1 17 60
r 0.16556 1 2 tcp 1040 ------- 0 1.0 3.1 32 103
+ 0.16556 2 3 tcp 1040 ------- 0 1.0 3.1 32 103
r 0.16556 0 2 tcp 1040 ------- 0 0.0 3.0 35 99
+ 0.16556 2 3 tcp 1040 ------- 0 0.0 3.0 35 99
r 0.1664 2 3 tcp 1040 ------- 0 0.0 3.0 19 51
+ 0.1664 3 2 ack 40 ------- 0 3.0 0.0 19 110
- 0.1664 3 2 ack 40 ------- 0 3.0 0.0 19 110
r 0.16756 3 2 ack 40 ------- 0 3.0 0.0 19 110
+ 0.16756 2 0 ack 40 ------- 0 3.0 0.0 19 110
- 0.16756 2 0 ack 40 ------- 0 3.0 0.0 19 110
- 0.16872 1 2 tcp 1040 ------- 0 1.0 3.1 34 109
r 0.16872 2 0 ack 40 ------- 0 3.0 0.0 19 110
+ 0.16872 0 2 tcp 1040 ------- 0 0.0 3.0 39 111
- 0.16872 0 2 tcp 1040 ------- 0 0.0 3.0 37 105
- 0.16956 2 3 tcp 1040 ------- 0 0.0 3.0 20 52
r 0.16972 1 2 tcp 1040 ------- 0 1.0 3.1 33 108
+ 0.16972 2 3 tcp 1040 ------- 0 1.0 3.1 33 108
r 0.16972 0 2 tcp 1040 ------- 0 0.0 3.0 36 100
+ 0.16972 2 3 tcp 1040 ------- 0 0.0 3.0 36 100
r 0.17056 2 3 tcp 1040 ------- 0 1.0 3.1 17 60
+ 0.17056 3 2 ack 40 ------- 0 3.1 1.0 17 112
- 0.17056 3 2 ack 40 ------- 0 3.1 1.0 17 112
r 0.17172 3 2 ack 40 ------- 0 3.1 1.0 17 112
+ 0.17172 2 1 ack 40 ------- 0 3.1 1.0 17 112
- 0.17172 2 1 ack 40 ------- 0 3.1 1.0 17 112
r 0.17288 2 1 ack 40 ------- 0 3.1 1.0 17 112
+ 0.17288 1 2 tcp 1040 ------- 0 1.0 3.1 35 113
- 0.17288 1 2 tcp 1040 ------- 0 1.0 3.1 35 113
+ 0.17288 1 2 tcp 1040 ------- 0 1.0 3.1 36 114
- 0.17288 0 2 tcp 1040 ------- 0 0.0 3.0 38 106
- 0.17372 2 3 tcp 1040 ------- 0 1.0 3.1 18 61
r 0.17388 1 2 tcp 1040 ------- 0 1.0 3.1 34 109
+ 0.17388 2 3 tcp 1040 ------- 0 1.0 3.1 34 109
r 0.17388 0 2 tcp 1040 ------- 0 0.0 3.0 37 105
+ 0.17388 2 3 tcp 1040 ------- 0 0.0 3.0 37 105
r 0.17472 2 3 tcp 1040 ------- 0 0.0 3.0 20 52
+ 0.17472 3 2 ack 40 ------- 0 3.0 0.0 20 115
- 0.17472 3 2 ack 40 ------- 0 3.0 0.0 20 115
r 0.17588 3 2 ack 40 ------- 0 3.0 0.0 20 115
+ 0.17588 2 0 ack 40 ------- 0 3.0 0.0 20 115
- 0.17588 2 0 ack 40 ------- 0 3.0 0.0 20 115
- 0.17704 1 2 tcp 1040 ------- 0 1.0 3.1 36 114
r 0.17704 2 0 ack 40 ------- 0 3.0 0.0 20 115
+ 0.17704 0 2 tcp 1040 ------- 0 0.0 3.0 40 116
- 0.17704 0 2 tcp 1040 ------- 0 0.0 3.0 39 111
- 0.17788 2 3 tcp 1040 ------- 0 0.0 3.0 21 57
r 0.17804 1 2 tcp 1040 ------- 0 1.0 3.1 35 113
+ 0.17804 2 3 tcp 1040 ------- 0 1.0 3.1 35 113
r 0.17804 0 2 tcp 1040 ------- 0 0.0 3.0 38 106
+ 0.17804 2 3 tcp 1040 ------- 0 0.0 3.0 38 106
r 0.17888 2 3 tcp 1040 ------- 0 1.0 3.1 18 61
+ 0.17888 3 2 ack 40 ------- 0 3.1 1.0 18 117
- 0.17888 3 2 ack 40 ------- 0 3.1 1.0 18 117
r 0.18004 3 2 ack 40 ------- 0 3.1 1.0 18 117
+ 0.18004 2 1 ack 40 ------- 0 3.1 1.0 18 117
- 0.18004 2 1 ack 40 ------- 0 3.1 1.0 18 117
r 0.1812 2 1 ack 40 ------- 0 3.1 1.0 18 117
+ 0.1812 1 2 tcp 1040 ------- 0 1.0 3.1 37 118
- 0.1812 1 2 tcp 1040 ------- 0 1.0 3.1 37 118
+ 0.1812 1 2 tcp 1040 ------- 0 1.0 3.1 38 119
- 0.1812 0 2 tcp 1040 ------- 0 0.0 3.0 40 116
- 0.18204 2 3 tcp 1040 ------- 0 1.0 3.1 19 63
r 0.1822 1 2 tcp 1040 ------- 0 1.0 3.1 36 114
+ 0.1822 2 3 tcp 1040 ------- 0 1.0 3.1 36 114
r 0.1822 0 2 tcp 1040 ------- 0 0.0 3.0 39 111
+ 0.1822 2 3 tcp 1040 ------- 0 0.0 3.0 39 111
r 0.18304 2 3 tcp 1040 ------- 0 0.0 3.0 21 57
+ 0.18304 3 2 ack 40 ------- 0 3.0 0.0 21 120
- 0.18304 3 2 ack 40 ------- 0 3.0 0.0 21 120
r 0.1842 3 2 ack 40 ------- 0 3.0 0.0 21 120
+ 0.1842 2 0 ack 40 ------- 0 3.0 0.0 21 120
- 0.1842 2 0 ack 40 ------- 0 3.0 0.0 21 120
- 0.18536 1 2 tcp 1040 ------- 0 1.0 3.1 38 119
r 0.18536 2 0 ack 40 ------- 0 3.0 0.0 21 120
+ 0.18536 0 2 tcp 1040 ------- 0 0.0 3.0 41 121
- 0.18536 0 2 tcp 1040 ------- 0 0.0 3.0 41 121
- 0.1862 2 3 tcp 1040 ------- 0 0.0 3.0 22 58
r 0.18636 1 2 tcp 1040 ------- 0 1.0 3.1 37 118
+ 0.18636 2 3 tcp 1040 ------- 0 1.0 3.1 37 118
r 0.18636 0 2 tcp 1040 ------- 0 0.0 3.0 40 116
+ 0.18636 2 3 tcp 1040 ------- 0 0.0 3.0 40 116
r 0.1872 2 3 tcp 1040 ------- 0 1.0 3.1 19 63
+ 0.1872 3 2 ack 40 ------- 0 3.1 1.0 19 122
- 0.1872 3 2 ack 40 ------- 0 3.1 1.0 19 122
r 0.18836 3 2 ack 40 ------- 0 3.1 1.0 19 122
+ 0.18836 2 1 ack 40 ------- 0 3.1 1.0 19 122
- 0.18836 2 1 ack 40 ------- 0 3.1 1.0 19 122