V -t * -v 1.0a5 -a 0
A -t * -n 1 -p 0 -o 0x7fffffff -c 30 -a 1
A -t * -h 1 -m 1073741823 -s 0
n -t * -a 0 -s 0 -S UP -v circle -c black -i black
n -t * -a 1 -s 1 -S UP -v circle -c black -i black
n -t * -a 2 -s 2 -S UP -v circle -c black -i black
n -t * -a 3 -s 3 -S UP -v circle -c black -i black
l -t * -s 0 -d 2 -S UP -r 2000000 -D 0.001 -c black
l -t * -s 1 -d 2 -S UP -r 2000000 -D 0.001 -c black
l -t * -s 2 -d 3 -S UP -r 2000000 -D 0.001 -c black
+ -t 0.01 -s 0 -d 2 -p tcp -e 40 -c 0 -i 0 -a 0 -x {0.0 3.0 0 ------- null}
- -t 0.01 -s 0 -d 2 -p tcp -e 40 -c 0 -i 0 -a 0 -x {0.0 3.0 0 ------- null}
h -t 0.01 -s 0 -d 2 -p tcp -e 40 -c 0 -i 0 -a 0 -x {0.0 3.0 -1 ------- null}
+ -t 0.0100081831732423 -s 1 -d 2 -p tcp -e 40 -c 0 -i 1 -a 0 -x {1.0 3.1 0 ------- null}
- -t 0.0100081831732423 -s 1 -d 2 -p tcp -e 40 -c 0 -i 1 -a 0 -x {1.0 3.1 0 ------- null}
h -t 0.0100081831732423 -s 1 -d 2 -p tcp -e 40 -c 0 -i 1 -a 0 -x {1.0 3.1 -1 ------- null}
r -t 0.01116 -s 0 -d 2 -p tcp -e 40 -c 0 -i 0 -a 0 -x {0.0 3.0 0 ------- null}
+ -t 0.01116 -s 2 -d 3 -p tcp -e 40 -c 0 -i 0 -a 0 -x {0.0 3.0 0 ------- null}
- -t 0.01116 -s 2 -d 3 -p tcp -e 40 -c 0 -i 0 -a 0 -x {0.0 3.0 0 ------- null}
h -t 0.01116 -s 2 -d 3 -p tcp -e 40 -c 0 -i 0 -a 0 -x {0.0 3.0 -1 ------- null}
r -t 0.0111681831732423 -s 1 -d 2 -p tcp -e 40 -c 0 -i 1 -a 0 -x {1.0 3.1 0 ------- null}
+ -t 0.0111681831732423 -s 2 -d 3 -p tcp -e 40 -c 0 -i 1 -a 0 -x {1.0 3.1 0 ------- null}
- -t 0.01132 -s 2 -d 3 -p tcp -e 40 -c 0 -i 1 -a 0 -x {1.0 3.1 0 ------- null}
h -t 0.01132 -s 2 -d 3 -p tcp -e 40 -c 0 -i 1 -a 0 -x {1.0 3.1 -1 ------- null}
r -t 0.01232 -s 2 -d 3 -p tcp -e 40 -c 0 -i 0 -a 0 -x {0.0 3.0 0 ------- null}
+ -t 0.01232 -s 3 -d 2 -p ack -e 40 -c 0 -i 2 -a 0 -x {3.0 0.0 0 ------- null}
- -t 0.01232 -s 3 -d 2 -p ack -e 40 -c 0 -i 2 -a 0 -x {3.0 0.0 0 ------- null}
h -t 0.01232 -s 3 -d 2 -p ack -e 40 -c 0 -i 2 -a 0 -x {3.0 0.0 -1 ------- null}
r -t 0.01248 -s 2 -d 3 -p tcp -e 40 -c 0 -i 1 -a 0 -x {1.0 3.1 0 ------- null}
+ -t 0.01248 -s 3 -d 2 -p ack -e 40 -c 0 -i 3 -a 0 -x {3.1 1.0 0 ------- null}
- -t 0.01248 -s 3 -d 2 -p ack -e 40 -c 0 -i 3 -a 0 -x {3.1 1.0 0 ------- null}
h -t 0.01248 -s 3 -d 2 -p ack -e 40 -c 0 -i 3 -a 0 -x {3.1 1.0 -1 ------- null}
r -t 0.01348 -s 3 -d 2 -p ack -e 40 -c 0 -i 2 -a 0 -x {3.0 0.0 0 ------- null}
+ -t 0.01348 -s 2 -d 0 -p ack -e 40 -c 0 -i 2 -a 0 -x {3.0 0.0 0 ------- null}
- -t 0.01348 -s 2 -d 0 -p ack -e 40 -c 0 -i 2 -a 0 -x {3.0 0.0 0 ------- null}
h -t 0.01348 -s 2 -d 0 -p ack -e 40 -c 0 -i 2 -a 0 -x {3.0 0.0 -1 ------- null}
r -t 0.01364 -s 3 -d 2 -p ack -e 40 -c 0 -i 3 -a 0 -x {3.1 1.0 0 ------- null}
+ -t 0.01364 -s 2 -d 1 -p ack -e 40 -c 0 -i 3 -a 0 -x {3.1 1.0 0 ------- null}
- -t 0.01364 -s 2 -d 1 -p ack -e 40 -c 0 -i 3 -a 0 -x {3.1 1.0 0 ------- null}
h -t 0.01364 -s 2 -d 1 -p ack -e 40 -c 0 -i 3 -a 0 -x {3.1 1.0 -1 ------- null}
r -t 0.01464 -s 2 -d 0 -p ack -e 40 -c 0 -i 2 -a 0 -x {3.0 0.0 0 ------- null}
+ -t 0.01464 -s 0 -d 2 -p tcp -e 1040 -c 0 -i 4 -a 0 -x {0.0 3.0 1 ------- null}
- -t 0.01464 -s 0 -d 2 -p tcp -e 1040 -c 0 -i 4 -a 0 -x {0.0 3.0 1 ------- null}
h -t 0.01464 -s 0 -d 2 -p tcp -e 1040 -c 0 -i 4 -a 0 -x {0.0 3.0 -1 ------- null}
+ -t 0.01464 -s 0 -d 2 -p tcp -e 1040 -c 0 -i 5 -a 0 -x {0.0 3.0 2 ------- null}
r -t 0.0148 -s 2 -d 1 -p ack -e 40 -c 0 -i 3 -a 0 -x {3.1 1.0 0 ------- null}
+ -t 0.0148 -s 1 -d 2 -p tcp -e 1040 -c 0 -i 6 -a 0 -x {1.0 3.1 1 ------- null}
- -t 0.0148 -s 1 -d 2 -p tcp -e 1040 -c 0 -i 6 -a 0 -x {1.0 3.1 1 ------- null}
h -t 0.0148 -s 1 -d 2 -p tcp -e 1040 -c 0 -i 6 -a 0 -x {1.0 3.1 -1 ------- null}
+ -t 0.0148 -s 1 -d 2 -p tcp -e 1040 -c 0 -i 7 -a 0 -x {1.0 3.1 2 ------- null}
- -t 0.0188 -s 0 -d 2 -p tcp -e 1040 -c 0 -i 5 -a 0 -x {0.0 3.0 2 ------- null}
h -t 0.0188 -s 0 -d 2 -p tcp -e 1040 -c 0 -i 5 -a 0 -x {0.0 3.0 -1 ------- null}
- -t 0.01896 -s 1 -d 2 -p tcp -e 1040 -c 0 -i 7 -a 0 -x {1.0 3.1 2 ------- null}
h -t 0.01896 -s 1 -d 2 -p tcp -e 1040 -c 0 -i 7 -a 0 -x {1.0 3.1 -1 ------- null}
r -t 0.0198 -s 0 -d 2 -p tcp -e 1040 -c 0 -i 4 -a 0 -x {0.0 3.0 1 ------- null}
+ -t 0.0198 -s 2 -d 3 -p tcp -e 1040 -c 0 -i 4 -a 0 -x {0.0 3.0 1 ------- null}
- -t 0.0198 -s 2 -d 3 -p tcp -e 1040 -c 0 -i 4 -a 0 -x {0.0 3.0 1 ------- null}
h -t 0.0198 -s 2 -d 3 -p tcp -e 1040 -c 0 -i 4 -a 0 -x {0.0 3.0 -1 ------- null}
r -t 0.01996 -s 1 -d 2 -p tcp -e 1040 -c 0 -i 6 -a 0 -x {1.0 3.1 1 ------- null}
+ -t 0.01996 -s 2 -d 3 -p tcp -e 1040 -c 0 -i 6 -a 0 -x {1.0 3.1 1 ------- null}
r -t 0.02396 -s 0 -d 2 -p tcp -e 1040 -c 0 -i 5 -a 0 -x {0.0 3.0 2 ------- null}
+ -t 0.02396 -s 2 -d 3 -p tcp -e 1040 -c 0 -i 5 -a 0 -x {0.0 3.0 2 ------- null}
- -t 0.02396 -s 2 -d 3 -p tcp -e 1040 -c 0 -i 6 -a 0 -x {1.0 3.1 1 ------- null}
h -t 0.02396 -s 2 -d 3 -p tcp -e 1040 -c 0 -i 6 -a 0 -x {1.0 3.1 -1 ------- null}
r -t 0.02412 -s 1 -d 2 -p tcp -e 1040 -c 0 -i 7 -a 0 -x {1.0 3.1 2 ------- null}
+ -t 0.02412 -s 2 -d 3 -p tcp -e 1040 -c 0 -i 7 -a 0 -x {1.0 3.1 2 ------- null}
r -t 0.02496 -s 2 -d 3 -p tcp -e 1040 -c 0 -i 4 -a 0 -x {0.0 3.0 1 ------- null}
+ -t 0.02496 -s 3 -d 2 -p ack -e 40 -c 0 -i 8 -a 0 -x {3.0 0.0 1 ------- null}
- -t 0.02496 -s 3 -d 2 -p ack -e 40 -c 0 -i 8 -a 0 -x {3.0 0.0 1 ------- null}
h -t 0.02496 -s 3 -d 2 -p ack -e 40 -c 0 -i 8 -a 0 -x {3.0 0.0 -1 ------- null}
r -t 0.02612 -s 3 -d 2 -p ack -e 40 -c 0 -i 8 -a 0 -x {3.0 0.0 1 ------- null}
+ -t 0.02612 -s 2 -d 0 -p ack -e 40 -c 0 -i 8 -a 0 -x {3.0 0.0 1 ------- null}
- -t 0.02612 -s 2 -d 0 -p ack -e 40 -c 0 -i 8 -a 0 -x {3.0 0.0 1 ------- null}
h -t 0.02612 -s 2 -d 0 -p ack -e 40 -c 0 -i 8 -a 0 -x {3.0 0.0 -1 ------- null}
r -t 0.02728 -s 2 -d 0 -p ack -e 40 -c 0 -i 8 -a 0 -x {3.0 0.0 1 ------- null}
+ -t 0.02728 -s 0 -d 2 -p tcp -e 1040 -c 0 -i 9 -a 0 -x {0.0 3.0 3 ------- null}
- -t 0.02728 -s 0 -d 2 -p tcp -e 1040 -c 0 -i 9 -a 0 -x {0.0 3.0 3 ------- null}
h -t 0.02728 -s 0 -d 2 -p tcp -e 1040 -c 0 -i 9 -a 0 -x {0.0 3.0 -1 ------- null}
+ -t 0.02728 -s 0 -d 2 -p tcp -e 1040 -c 0 -i 10 -a 0 -x {0.0 3.0 4 ------- null}
- -t 0.02812 -s 2 -d 3 -p tcp -e 1040 -c 0 -i 5 -a 0 -x {0.0 3.0 2 ------- null}
h -t 0.02812 -s 2 -d 3 -p tcp -e 1040 -c 0 -i 5 -a 0 -x {0.0 3.0 -1 ------- null}
r -t 0.02912 -s 2 -d 3 -p tcp -e 1040 -c 0 -i 6 -a 0 -x {1.0 3.1 1 ------- null}
+ -t 0.02912 -s 3 -d 2 -p ack -e 40 -c 0 -i 11 -a 0 -x {3.1 1.0 1 ------- null}
- -t 0.02912 -s 3 -d 2 -p ack -e 40 -c 0 -i 11 -a 0 -x {3.1 1.0 1 ------- null}
h -t 0.02912 -s 3 -d 2 -p ack -e 40 -c 0 -i 11 -a 0 -x {3.1 1.0 -1 ------- null}
r -t 0.03028 -s 3 -d 2 -p ack -e 40 -c 0 -i 11 -a 0 -x {3.1 1.0 1 ------- null}
+ -t 0.03028 -s 2 -d 1 -p ack -e 40 -c 0 -i 11 -a 0 -x {3.1 1.0 1 ------- null}
- -t 0.03028 -s 2 -d 1 -p ack -e 40 -c 0 -i 11 -a 0 -x {3.1 1.0 1 ------- null}
h -t 0.03028 -s 2 -d 1 -p ack -e 40 -c 0 -i 11 -a 0 -x {3.1 1.0 -1 ------- null}
- -t 0.03144 -s 0 -d 2 -p tcp -e 1040 -c 0 -i 10 -a 0 -x {0.0 3.0 4 ------- null}
h -t 0.03144 -s 0 -d 2 -p tcp -e 1040 -c 0 -i 10 -a 0 -x {0.0 3.0 -1 ------- null}
r -t 0.03144 -s 2 -d 1 -p ack -e 40 -c 0 -i 11 -a 0 -x {3.1 1.0 1 ------- null}
+ -t 0.03144 -s 1 -d 2 -p tcp -e 1040 -c 0 -i 12 -a 0 -x {1.0 3.1 3 ------- null}
- -t 0.03144 -s 1 -d 2 -p tcp -e 1040 -c 0 -i 12 -a 0 -x {1.0 3.1 3 ------- null}
h -t 0.03144 -s 1 -d 2 -p tcp -e 1040 -c 0 -i 12 -a 0 -x {1.0 3.1 -1 ------- null}
+ -t 0.03144 -s 1 -d 2 -p tcp -e 1040 -c 0 -i 13 -a 0 -x {1.0 3.1 4 ------- null}
- -t 0.03228 -s 2 -d 3 -p tcp -e 1040 -c 0 -i 7 -a 0 -x {1.0 3.1 2 ------- null}
h -t 0.03228 -s 2 -d 3 -p tcp -e 1040 -c 0 -i 7 -a 0 -x {1.0 3.1 -1 ------- null}
r -t 0.03244 -s 0 -d 2 -p tcp -e 1040 -c 0 -i 9 -a 0 -x {0.0 3.0 3 ------- null}
+ -t 0.03244 -s 2 -d 3 -p tcp -e 1040 -c 0 -i 9 -a 0 -x {0.0 3.0 3 ------- null}
r -t 0.03328 -s 2 -d 3 -p tcp -e 1040 -c 0 -i 5 -a 0 -x {0.0 3.0 2 ------- null}
+ -t 0.03328 -s 3 -d 2 -p ack -e 40 -c 0 -i 14 -a 0 -x {3.0 0.0 2 ------- null}
- -t 0.03328 -s 3 -d 2 -p ack -e 40 -c 0 -i 14 -a 0 -x {3.0 0.0 2 ------- null}
h -t 0.03328 -s 3 -d 2 -p ack -e 40 -c 0 -i 14 -a 0 -x {3.0 0.0 -1 ------- null}
r -t 0.03444 -s 3 -d 2 -p ack -e 40 -c 0 -i 14 -a 0 -x {3.0 0.0 2 ------- null}
+ -t 0.03444 -s 2 -d 0 -p ack -e 40 -c 0 -i 14 -a 0 -x {3.0 0.0 2 ------- null}
- -t 0.03444 -s 2 -d 0 -p ack -e 40 -c 0 -i 14 -a 0 -x {3.0 0.0 2 ------- null}
h -t 0.03444 -s 2 -d 0 -p ack -e 40 -c 0 -i 14 -a 0 -x {3.0 0.0 -1 ------- null}
- -t 0.0356 -s 1 -d 2 -p tcp -e 1040 -c 0 -i 13 -a 0 -x {1.0 3.1 4 ------- null}
h -t 0.0356 -s 1 -d 2 -p tcp -e 1040 -c 0 -i 13 -a 0 -x {1.0 3.1 -1 ------- null}
r -t 0.0356 -s 2 -d 0 -p ack -e 40 -c 0 -i 14 -a 0 -x {3.0 0.0 2 ------- null}
+ -t 0.0356 -s 0 -d 2 -p tcp -e 1040 -c 0 -i 15 -a 0 -x {0.0 3.0 5 ------- null}
- -t 0.0356 -s 0 -d 2 -p tcp -e 1040 -c 0 -i 15 -a 0 -x {0.0 3.0 5 ------- null}
h -t 0.0356 -s 0 -d 2 -p tcp -e 1040 -c 0 -i 15 -a 0 -x {0.0 3.0 -1 ------- null}
+ -t 0.0356 -s 0 -d 2 -p tcp -e 1040 -c 0 -i 16 -a 0 -x {0.0 3.0 6 ------- null}
- -t 0.03644 -s 2 -d 3 -p tcp -e 1040 -c 0 -i 9 -a 0 -x {0.0 3.0 3 ------- null}
h -t 0.03644 -s 2 -d 3 -p tcp -e 1040 -c 0 -i 9 -a 0 -x {0.0 3.0 -1 ------- null}
r -t 0.0366 -s 0 -d 2 -p tcp -e 1040 -c 0 -i 10 -a 0 -x {0.0 3.0 4 ------- null}
+ -t 0.0366 -s 2 -d 3 -p tcp -e 1040 -c 0 -i 10 -a 0 -x {0.0 3.0 4 ------- null}
r -t 0.0366 -s 1 -d 2 -p tcp -e 1040 -c 0 -i 12 -a 0 -x {1.0 3.1 3 ------- null}
+ -t 0.0366 -s 2 -d 3 -p tcp -e 1040 -c 0 -i 12 -a 0 -x {1.0 3.1 3 ------- null}
r -t 0.03744 -s 2 -d 3 -p tcp -e 1040 -c 0 -i 7 -a 0 -x {1.0 3.1 2 ------- null}
+ -t 0.03744 -s 3 -d 2 -p ack -e 40 -c 0 -i 17 -a 0 -x {3.1 1.0 2 ------- null}
- -t 0.03744 -s 3 -d 2 -p ack -e 40 -c 0 -i 17 -a 0 -x {3.1 1.0 2 ------- null}
h -t 0.03744 -s 3 -d 2 -p ack -e 40 -c 0 -i 17 -a 0 -x {3.1 1.0 -1 ------- null}
r -t 0.0386 -s 3 -d 2 -p ack -e 40 -c 0 -i 17 -a 0 -x {3.1 1.0 2 ------- null}
+ -t 0.0386 -s 2 -d 1 -p ack -e 40 -c 0 -i 17 -a 0 -x {3.1 1.0 2 ------- null}
- -t 0.0386 -s 2 -d 1 -p ack -e 40 -c 0 -i 17 -a 0 -x {3.1 1.0 2 ------- null}
h -t 0.0386 -s 2 -d 1 -p ack -e 40 -c 0 -i 17 -a 0 -x {3.1 1.0 -1 ------- null}
- -t 0.03976 -s 0 -d 2 -p tcp -e 1040 -c 0 -i 16 -a 0 -x {0.0 3.0 6 ------- null}
h -t 0.03976 -s 0 -d 2 -p tcp -e 1040 -c 0 -i 16 -a 0 -x {0.0 3.0 -1 ------- null}
r -t 0.03976 -s 2 -d 1 -p ack -e 40 -c 0 -i 17 -a 0 -x {3.1 1.0 2 ------- null}
+ -t 0.03976 -s 1 -d 2 -p tcp -e 1040 -c 0 -i 18 -a 0 -x {1.0 3.1 5 ------- null}
- -t 0.03976 -s 1 -d 2 -p tcp -e 1040 -c 0 -i 18 -a 0 -x {1.0 3.1 5 ------- null}
h -t 0.03976 -s 1 -d 2 -p tcp -e 1040 -c 0 -i 18 -a 0 -x {1.0 3.1 -1 ------- null}
+ -t 0.03976 -s 1 -d 2 -p tcp -e 1040 -c 0 -i 19 -a 0 -x {1.0 3.1 6 ------- null}
- -t 0.0406 -s 2 -d 3 -p tcp -e 1040 -c 0 -i 10 -a 0 -x {0.0 3.0 4 ------- null}
h -t 0.0406 -s 2 -d 3 -p tcp -e 1040 -c 0 -i 10 -a 0 -x {0.0 3.0 -1 ------- null}
r -t 0.04076 -s 1 -d 2 -p tcp -e 1040 -c 0 -i 13 -a 0 -x {1.0 3.1 4 ------- null}
+ -t 0.04076 -s 2 -d 3 -p tcp -e 1040 -c 0 -i 13 -a 0 -x {1.0 3.1 4 ------- null}
r -t 0.04076 -s 0 -d 2 -p tcp -e 1040 -c 0 -i 15 -a 0 -x {0.0 3.0 5 ------- null}
+ -t 0.04076 -s 2 -d 3 -p tcp -e 1040 -c 0 -i 15 -a 0 -x {0.0 3.0 5 ------- null}
r -t 0.0416 -s 2 -d 3 -p tcp -e 1040 -c 0 -i 9 -a 0 -x {0.0 3.0 3 ------- null}
+ -t 0.0416 -s 3 -d 2 -p ack -e 40 -c 0 -i 20 -a 0 -x {3.0 0.0 3 ------- null}
- -t 0.0416 -s 3 -d 2 -p ack -e 40 -c 0 -i 20 -a 0 -x {3.0 0.0 3 ------- null}
h -t 0.0416 -s 3 -d 2 -p ack -e 40 -c 0 -i 20 -a 0 -x {3.0 0.0 -1 ------- null}
r -t 0.04276 -s 3 -d 2 -p ack -e 40 -c 0 -i 20 -a 0 -x {3.0 0.0 3 ------- null}
+ -t 0.04276 -s 2 -d 0 -p ack -e 40 -c 0 -i 20 -a 0 -x {3.0 0.0 3 ------- null}
- -t 0.04276 -s 2 -d 0 -p ack -e 40 -c 0 -i 20 -a 0 -x {3.0 0.0 3 ------- null}
h -t 0.04276 -s 2 -d 0 -p ack -e 40 -c 0 -i 20 -a 0 -x {3.0 0.0 -1 ------- null}
- -t 0.04392 -s 1 -d 2 -p tcp -e 1040 -c 0 -i 19 -a 0 -x {1.0 3.1 6 ------- null}
h -t 0.04392 -s 1 -d 2 -p tcp -e 1040 -c 0 -i 19 -a 0 -x {1.0 3.1 -1 ------- null}
r -t 0.04392 -s 2 -d 0 -p ack -e 40 -c 0 -i 20 -a 0 -x {3.0 0.0 3 ------- null}
+ -t 0.04392 -s 0 -d 2 -p tcp -e 1040 -c 0 -i 21 -a 0 -x {0.0 3.0 7 ------- null}
- -t 0.04392 -s 0 -d 2 -p tcp -e 1040 -c 0 -i 21 -a 0 -x {0.0 3.0 7 ------- null}
h -t 0.04392 -s 0 -d 2 -p tcp -e 1040 -c 0 -i 21 -a 0 -x {0.0 3.0 -1 ------- null}
+ -t 0.04392 -s 0 -d 2 -p tcp -e 1040 -c 0 -i 22 -a 0 -x {0.0 3.0 8 ------- null}
- -t 0.04476 -s 2 -d 3 -p tcp -e 1040 -c 0 -i 12 -a 0 -x {1.0 3.1 3 ------- null}
h -t 0.04476 -s 2 -d 3 -p tcp -e 1040 -c 0 -i 12 -a 0 -x {1.0 3.1 -1 ------- null}
r -t 0.04492 -s 0 -d 2 -p tcp -e 1040 -c 0 -i 16 -a 0 -x {0.0 3.0 6 ------- null}
+ -t 0.04492 -s 2 -d 3 -p tcp -e 1040 -c 0 -i 16 -a 0 -x {0.0 3.0 6 ------- null}
r -t 0.04492 -s 1 -d 2 -p tcp -e 1040 -c 0 -i 18 -a 0 -x {1.0 3.1 5 ------- null}
+ -t 0.04492 -s 2 -d 3 -p tcp -e 1040 -c 0 -i 18 -a 0 -x {1.0 3.1 5 ------- null}
r -t 0.04576 -s 2 -d 3 -p tcp -e 1040 -c 0 -i 10 -a 0 -x {0.0 3.0 4 ------- null}
+ -t 0.04576 -s 3 -d 2 -p ack -e 40 -c 0 -i 23 -a 0 -x {3.0 0.0 4 ------- null}
- -t 0.04576 -s 3 -d 2 -p ack -e 40 -c 0 -i 23 -a 0 -x {3.0 0.0 4 ------- null}
h -t 0.04576 -s 3 -d 2 -p ack -e 40 -c 0 -i 23 -a 0 -x {3.0 0.0 -1 ------- null}
r -t 0.04692 -s 3 -d 2 -p ack -e 40 -c 0 -i 23 -a 0 -x {3.0 0.0 4 ------- null}
+ -t 0.04692 -s 2 -d 0 -p ack -e 40 -c 0 -i 23 -a 0 -x {3.0 0.0 4 ------- null}
- -t 0.04692 -s 2 -d 0 -p ack -e 40 -c 0 -i 23 -a 0 -x {3.0 0.0 4 ------- null}
h -t 0.04692 -s 2 -d 0 -p ack -e 40 -c 0 -i 23 -a 0 -x {3.0 0.0 -1 ------- null}
- -t 0.04808 -s 0 -d 2 -p tcp -e 1040 -c 0 -i 22 -a 0 -x {0.0 3.0 8 ------- null}
h -t 0.04808 -s 0 -d 2 -p tcp -e 1040 -c 0 -i 22 -a 0 -x {0.0 3.0 -1 ------- null}
r -t 0.04808 -s 2 -d 0 -p ack -e 40 -c 0 -i 23 -a 0 -x {3.0 0.0 4 ------- null}
+ -t 0.04808 -s 0 -d 2 -p tcp -e 1040 -c 0 -i 24 -a 0 -x {0.0 3.0 9 ------- null}
+ -t 0.04808 -s 0 -d 2 -p tcp -e 1040 -c 0 -i 25 -a 0 -x {0.0 3.0 10 ------- null}
- -t 0.04892 -s 2 -d 3 -p tcp -e 1040 -c 0 -i 13 -a 0 -x {1.0 3.1 4 ------- null}
h -t 0.04892 -s 2 -d 3 -p tcp -e 1040 -c 0 -i 13 -a 0 -x {1.0 3.1 -1 ------- null}
r -t 0.04908 -s 1 -d 2 -p tcp -e 1040 -c 0 -i 19 -a 0 -x {1.0 3.1 6 ------- null}
+ -t 0.04908 -s 2 -d 3 -p tcp -e 1040 -c 0 -i 19 -a 0 -x {1.0 3.1 6 ------- null}
r -t 0.04908 -s 0 -d 2 -p tcp -e 1040 -c 0 -i 21 -a 0 -x {0.0 3.0 7 ------- null}
+ -t 0.04908 -s 2 -d 3 -p tcp -e 1040 -c 0 -i 21 -a 0 -x {0.0 3.0 7 ------- null}
r -t 0.04992 -s 2 -d 3 -p tcp -e 1040 -c 0 -i 12 -a 0 -x {1.0 3.1 3 ------- null}
+ -t 0.04992 -s 3 -d 2 -p ack -e 40 -c 0 -i 26 -a 0 -x {3.1 1.0 3 ------- null}
- -t 0.04992 -s 3 -d 2 -p ack -e 40 -c 0 -i 26 -a 0 -x {3.1 1.0 3 ------- null}
h -t 0.04992 -s 3 -d 2 -p ack -e 40 -c 0 -i 26 -a 0 -x {3.1 1.0 -1 ------- null}
r -t 0.05108 -s 3 -d 2 -p ack -e 40 -c 0 -i 26 -a 0 -x {3.1 1.0 3 ------- null}
+ -t 0.05108 -s 2 -d 1 -p ack -e 40 -c 0 -i 26 -a 0 -x {3.1 1.0 3 ------- null}
- -t 0.05108 -s 2 -d 1 -p ack -e 40 -c 0 -i 26 -a 0 -x {3.1 1.0 3 ------- null}
h -t 0.05108 -s 2 -d 1 -p ack -e 40 -c 0 -i 26 -a 0 -x {3.1 1.0 -1 ------- null}
- -t 0.05224 -s 0 -d 2 -p tcp -e 1040 -c 0 -i 24 -a 0 -x {0.0 3.0 9 ------- null}
h -t 0.05224 -s 0 -d 2 -p tcp -e 1040 -c 0 -i 24 -a 0 -x {0.0 3.0 -1 ------- null}
r -t 0.05224 -s 2 -d 1 -p ack -e 40 -c 0 -i 26 -a 0 -x {3.1 1.0 3 ------- null}
+ -t 0.05224 -s 1 -d 2 -p tcp -e 1040 -c 0 -i 27 -a 0 -x {1.0 3.1 7 ------- null}
- -t 0.05224 -s 1 -d 2 -p tcp -e 1040 -c 0 -i 27 -a 0 -x {1.0 3.1 7 ------- null}
h -t 0.05224 -s 1 -d 2 -p tcp -e 1040 -c 0 -i 27 -a 0 -x {1.0 3.1 -1 ------- null}
+ -t 0.05224 -s 1 -d 2 -p tcp -e 1040 -c 0 -i 28 -a 0 -x {1.0 3.1 8 ------- null}
- -t 0.05308 -s 2 -d 3 -p tcp -e 1040 -c 0 -i 15 -a 0 -x {0.0 3.0 5 ------- null}
h -t 0.05308 -s 2 -d 3 -p tcp -e 1040 -c 0 -i 15 -a 0 -x {0.0 3.0 -1 ------- null}
r -t 0.05324 -s 0 -d 2 -p tcp -e 1040 -c 0 -i 22 -a 0 -x {0.0 3.0 8 ------- null}
+ -t 0.05324 -s 2 -d 3 -p tcp -e 1040 -c 0 -i 22 -a 0 -x {0.0 3.0 8 ------- null}
r -t 0.05408 -s 2 -d 3 -p tcp -e 1040 -c 0 -i 13 -a 0 -x {1.0 3.1 4 ------- null}
+ -t 0.05408 -s 3 -d 2 -p ack -e 40 -c 0 -i 29 -a 0 -x {3.1 1.0 4 ------- null}
- -t 0.05408 -s 3 -d 2 -p ack -e 40 -c 0 -i 29 -a 0 -x {3.1 1.0 4 ------- null}
h -t 0.05408 -s 3 -d 2 -p ack -e 40 -c 0 -i 29 -a 0 -x {3.1 1.0 -1 ------- null}
r -t 0.05524 -s 3 -d 2 -p ack -e 40 -c 0 -i 29 -a 0 -x {3.1 1.0 4 ------- null}
+ -t 0.05524 -s 2 -d 1 -p ack -e 40 -c 0 -i 29 -a 0 -x {3.1 1.0 4 ------- null}
- -t 0.05524 -s 2 -d 1 -p ack -e 40 -c 0 -i 29 -a 0 -x {3.1 1.0 4 ------- null}
h -t 0.05524 -s 2 -d 1 -p ack -e 40 -c 0 -i 29 -a 0 -x {3.1 1.0 -1 ------- null}
- -t 0.0564 -s 0 -d 2 -p tcp -e 1040 -c 0 -i 25 -a 0 -x {0.0 3.0 10 ------- null}
h -t 0.0564 -s 0 -d 2 -p tcp -e 1040 -c 0 -i 25 -a 0 -x {0.0 3.0 -1 ------- null}
- -t 0.0564 -s 1 -d 2 -p tcp -e 1040 -c 0 -i 28 -a 0 -x {1.0 3.1 8 ------- null}
h -t 0.0564 -s 1 -d 2 -p tcp -e 1040 -c 0 -i 28 -a 0 -x {1.0 3.1 -1 ------- null}
r -t 0.0564 -s 2 -d 1 -p ack -e 40 -c 0 -i 29 -a 0 -x {3.1 1.0 4 ------- null}
+ -t 0.0564 -s 1 -d 2 -p tcp -e 1040 -c 0 -i 30 -a 0 -x {1.0 3.1 9 ------- null}
+ -t 0.0564 -s 1 -d 2 -p tcp -e 1040 -c 0 -i 31 -a 0 -x {1.0 3.1 10 ------- null}
- -t 0.05724 -s 2 -d 3 -p tcp -e 1040 -c 0 -i 16 -a 0 -x {0.0 3.0 6 ------- null}
h -t 0.05724 -s 2 -d 3 -p tcp -e 1040 -c 0 -i 16 -a 0 -x {0.0 3.0 -1 ------- null}
r -t 0.0574 -s 0 -d 2 -p tcp -e 1040 -c 0 -i 24 -a 0 -x {0.0 3.0 9 ------- null}
+ -t 0.0574 -s 2 -d 3 -p tcp -e 1040 -c 0 -i 24 -a 0 -x {0.0 3.0 9 ------- null}
r -t 0.0574 -s 1 -d 2 -p tcp -e 1040 -c 0 -i 27 -a 0 -x {1.0 3.1 7 ------- null}
+ -t 0.0574 -s 2 -d 3 -p tcp -e 1040 -c 0 -i 27 -a 0 -x {1.0 3.1 7 ------- null}
r -t 0.05824 -s 2 -d 3 -p tcp -e 1040 -c 0 -i 15 -a 0 -x {0.0 3.0 5 ------- null}
+ -t 0.05824 -s 3 -d 2 -p ack -e 40 -c 0 -i 32 -a 0 -x {3.0 0.0 5 ------- null}
- -t 0.05824 -s 3 -d 2 -p ack -e 40 -c 0 -i 32 -a 0 -x {3.0 0.0 5 ------- null}
h -t 0.05824 -s 3 -d 2 -p ack -e 40 -c 0 -i 32 -a 0 -x {3.0 0.0 -1 ------- null}
r -t 0.0594 -s 3 -d 2 -p ack -e 40 -c 0 -i 32 -a 0 -x {3.0 0.0 5 ------- null}
+ -t 0.0594 -s 2 -d 0 -p ack -e 40 -c 0 -i 32 -a 0 -x {3.0 0.0 5 ------- null}
- -t 0.0594 -s 2 -d 0 -p ack -e 40 -c 0 -i 32 -a 0 -x {3.0 0.0 5 ------- null}
h -t 0.0594 -s 2 -d 0 -p ack -e 40 -c 0 -i 32 -a 0 -x {3.0 0.0 -1 ------- null}
- -t 0.06056 -s 1 -d 2 -p tcp -e 1040 -c 0 -i 30 -a 0 -x {1.0 3.1 9 ------- null}
h -t 0.06056 -s 1 -d 2 -p tcp -e 1040 -c 0 -i 30 -a 0 -x {1.0 3.1 -1 ------- null}
r -t 0.06056 -s 2 -d 0 -p ack -e 40 -c 0 -i 32 -a 0 -x {3.0 0.0 5 ------- null}
+ -t 0.06056 -s 0 -d 2 -p tcp -e 1040 -c 0 -i 33 -a 0 -x {0.0 3.0 11 ------- null}
- -t 0.06056 -s 0 -d 2 -p tcp -e 1040 -c 0 -i 33 -a 0 -x {0.0 3.0 11 ------- null}
h -t 0.06056 -s 0 -d 2 -p tcp -e 1040 -c 0 -i 33 -a 0 -x {0.0 3.0 -1 ------- null}
+ -t 0.06056 -s 0 -d 2 -p tcp -e 1040 -c 0 -i 34 -a 0 -x {0.0 3.0 12 ------- null}
- -t 0.0614 -s 2 -d 3 -p tcp -e 1040 -c 0 -i 18 -a 0 -x {1.0 3.1 5 ------- null}
h -t 0.0614 -s 2 -d 3 -p tcp -e 1040 -c 0 -i 18 -a 0 -x {1.0 3.1 -1 ------- null}
r -t 0.06156 -s 0 -d 2 -p tcp -e 1040 -c 0 -i 25 -a 0 -x {0.0 3.0 10 ------- null}
+ -t 0.06156 -s 2 -d 3 -p tcp -e 1040 -c 0 -i 25 -a 0 -x {0.0 3.0 10 ------- null}
r -t 0.06156 -s 1 -d 2 -p tcp -e 1040 -c 0 -i 28 -a 0 -x {1.0 3.1 8 ------- null}
+ -t 0.06156 -s 2 -d 3 -p tcp -e 1040 -c 0 -i 28 -a 0 -x {1.0 3.1 8 ------- null}
r -t 0.0624 -s 2 -d 3 -p tcp -e 1040 -c 0 -i 16 -a 0 -x {0.0 3.0 6 ------- null}
+ -t 0.0624 -s 3 -d 2 -p ack -e 40 -c 0 -i 35 -a 0 -x {3.0 0.0 6 ------- null}
- -t 0.0624 -s 3 -d 2 -p ack -e 40 -c 0 -i 35 -a 0 -x {3.0 0.0 6 ------- null}
h -t 0.0624 -s 3 -d 2 -p ack -e 40 -c 0 -i 35 -a 0 -x {3.0 0.0 -1 ------- null}
r -t 0.06356 -s 3 -d 2 -p ack -e 40 -c 0 -i 35 -a 0 -x {3.0 0.0 6 ------- null}
+ -t 0.06356 -s 2 -d 0 -p ack -e 40 -c 0 -i 35 -a 0 -x {3.0 0.0 6 ------- null}
- -t 0.06356 -s 2 -d 0 -p ack -e 40 -c 0 -i 35 -a 0 -x {3.0 0.0 6 ------- null}
h -t 0.06356 -s 2 -d 0 -p ack -e 40 -c 0 -i 35 -a 0 -x {3.0 0.0 -1 ------- null}
r -t 0.06472 -s 2 -d 0 -p ack -e 40 -c 0 -i 35 -a 0 -x {3.0 0.0 6 ------- null}
+ -t 0.06472 -s 0 -d 2 -p tcp -e 1040 -c 0 -i 36 -a 0 -x {0.0 3.0 13 ------- null}
+ -t 0.06472 -s 0 -d 2 -p tcp -e 1040 -c 0 -i 37 -a 0 -x {0.0 3.0 14 ------- null}
- -t 0.06472 -s 1 -d 2 -p tcp -e 1040 -c 0 -i 31 -a 0 -x {1.0 3.1 10 ------- null}
h -t 0.06472 -s 1 -d 2 -p tcp -e 1040 -c 0 -i 31 -a 0 -x {1.0 3.1 -1 ------- null}
- -t 0.06472 -s 0 -d 2 -p tcp -e 1040 -c 0 -i 34 -a 0 -x {0.0 3.0 12 ------- null}
h -t 0.06472 -s 0 -d 2 -p tcp -e 1040 -c 0 -i 34 -a 0 -x {0.0 3.0 -1 ------- null}
- -t 0.06556 -s 2 -d 3 -p tcp -e 1040 -c 0 -i 19 -a 0 -x {1.0 3.1 6 ------- null}
h -t 0.06556 -s 2 -d 3 -p tcp -e 1040 -c 0 -i 19 -a 0 -x {1.0 3.1 -1 ------- null}
r -t 0.06572 -s 1 -d 2 -p tcp -e 1040 -c 0 -i 30 -a 0 -x {1.0 3.1 9 ------- null}
+ -t 0.06572 -s 2 -d 3 -p tcp -e 1040 -c 0 -i 30 -a 0 -x {1.0 3.1 9 ------- null}
r -t 0.06572 -s 0 -d 2 -p tcp -e 1040 -c 0 -i 33 -a 0 -x {0.0 3.0 11 ------- null}
+ -t 0.06572 -s 2 -d 3 -p tcp -e 1040 -c 0 -i 33 -a 0 -x {0.0 3.0 11 ------- null}
r -t 0.06656 -s 2 -d 3 -p tcp -e 1040 -c 0 -i 18 -a 0 -x {1.0 3.1 5 ------- null}
+ -t 0.06656 -s 3 -d 2 -p ack -e 40 -c 0 -i 38 -a 0 -x {3.1 1.0 5 ------- null}
- -t 0.06656 -s 3 -d 2 -p ack -e 40 -c 0 -i 38 -a 0 -x {3.1 1.0 5 ------- null}
h -t 0.06656 -s 3 -d 2 -p ack -e 40 -c 0 -i 38 -a 0 -x {3.1 1.0 -1 ------- null}
r -t 0.06772 -s 3 -d 2 -p ack -e 40 -c 0 -i 38 -a 0 -x {3.1 1.0 5 ------- null}
+ -t 0.06772 -s 2 -d 1 -p ack -e 40 -c 0 -i 38 -a 0 -x {3.1 1.0 5 ------- null}
- -t 0.06772 -s 2 -d 1 -p ack -e 40 -c 0 -i 38 -a 0 -x {3.1 1.0 5 ------- null}
h -t 0.06772 -s 2 -d 1 -p ack -e 40 -c 0 -i 38 -a 0 -x {3.1 1.0 -1 ------- null}
r -t 0.06888 -s 2 -d 1 -p ack -e 40 -c 0 -i 38 -a 0 -x {3.1 1.0 5 ------- null}
+ -t 0.06888 -s 1 -d 2 -p tcp -e 1040 -c 0 -i 39 -a 0 -x {1.0 3.1 11 ------- null}
+ -t 0.06888 -s 1 -d 2 -p tcp -e 1040 -c 0 -i 40 -a 0 -x {1.0 3.1 12 ------- null}
- -t 0.06888 -s 1 -d 2 -p tcp -e 1040 -c 0 -i 39 -a 0 -x {1.0 3.1 11 ------- null}
h -t 0.06888 -s 1 -d 2 -p tcp -e 1040 -c 0 -i 39 -a 0 -x {1.0 3.1 -1 ------- null}
- -t 0.06888 -s 0 -d 2 -p tcp -e 1040 -c 0 -i 36 -a 0 -x {0.0 3.0 13 ------- null}
h -t 0.06888 -s 0 -d 2 -p tcp -e 1040 -c 0 -i 36 -a 0 -x {0.0 3.0 -1 ------- null}
- -t 0.06972 -s 2 -d 3 -p tcp -e 1040 -c 0 -i 21 -a 0 -x {0.0 3.0 7 ------- null}
h -t 0.06972 -s 2 -d 3 -p tcp -e 1040 -c 0 -i 21 -a 0 -x {0.0 3.0 -1 ------- null}
r -t 0.06988 -s 1 -d 2 -p tcp -e 1040 -c 0 -i 31 -a 0 -x {1.0 3.1 10 ------- null}
+ -t 0.06988 -s 2 -d 3 -p tcp -e 1040 -c 0 -i 31 -a 0 -x {1.0 3.1 10 ------- null}
r -t 0.06988 -s 0 -d 2 -p tcp -e 1040 -c 0 -i 34 -a 0 -x {0.0 3.0 12 ------- null}
+ -t 0.06988 -s 2 -d 3 -p tcp -e 1040 -c 0 -i 34 -a 0 -x {0.0 3.0 12 ------- null}
r -t 0.07072 -s 2 -d 3 -p tcp -e 1040 -c 0 -i 19 -a 0 -x {1.0 3.1 6 ------- null}
+ -t 0.07072 -s 3 -d 2 -p ack -e 40 -c 0 -i 41 -a 0 -x {3.1 1.0 6 ------- null}
- -t 0.07072 -s 3 -d 2 -p ack -e 40 -c 0 -i 41 -a 0 -x {3.1 1.0 6 ------- null}
h -t 0.07072 -s 3 -d 2 -p ack -e 40 -c 0 -i 41 -a 0 -x {3.1 1.0 -1 ------- null}
r -t 0.07188 -s 3 -d 2 -p ack -e 40 -c 0 -i 41 -a 0 -x {3.1 1.0 6 ------- null}
+ -t 0.07188 -s 2 -d 1 -p ack -e 40 -c 0 -i 41 -a 0 -x {3.1 1.0 6 ------- null}
- -t 0.07188 -s 2 -d 1 -p ack -e 40 -c 0 -i 41 -a 0 -x {3.1 1.0 6 ------- null}
h -t 0.07188 -s 2 -d 1 -p ack -e 40 -c 0 -i 41 -a 0 -x {3.1 1.0 -1 ------- null}
r -t 0.07304 -s 2 -d 1 -p ack -e 40 -c 0 -i 41 -a 0 -x {3.1 1.0 6 ------- null}
+ -t 0.07304 -s 1 -d 2 -p tcp -e 1040 -c 0 -i 42 -a 0 -x {1.0 3.1 13 ------- null}
+ -t 0.07304 -s 1 -d 2 -p tcp -e 1040 -c 0 -i 43 -a 0 -x {1.0 3.1 14 ------- null}
- -t 0.07304 -s 1 -d 2 -p tcp -e 1040 -c 0 -i 40 -a 0 -x {1.0 3.1 12 ------- null}
h -t 0.07304 -s 1 -d 2 -p tcp -e 1040 -c 0 -i 40 -a 0 -x {1.0 3.1 -1 ------- null}
- -t 0.07304 -s 0 -d 2 -p tcp -e 1040 -c 0 -i 37 -a 0 -x {0.0 3.0 14 ------- null}
h -t 0.07304 -s 0 -d 2 -p tcp -e 1040 -c 0 -i 37 -a 0 -x {0.0 3.0 -1 ------- null}
- -t 0.07388 -s 2 -d 3 -p tcp -e 1040 -c 0 -i 22 -a 0 -x {0.0 3.0 8 ------- null}
h -t 0.07388 -s 2 -d 3 -p tcp -e 1040 -c 0 -i 22 -a 0 -x {0.0 3.0 -1 ------- null}
r -t 0.07404 -s 1 -d 2 -p tcp -e 1040 -c 0 -i 39 -a 0 -x {1.0 3.1 11 ------- null}
+ -t 0.07404 -s 2 -d 3 -p tcp -e 1040 -c 0 -i 39 -a 0 -x {1.0 3.1 11 ------- null}
r -t 0.07404 -s 0 -d 2 -p tcp -e 1040 -c 0 -i 36 -a 0 -x {0.0 3.0 13 ------- null}
+ -t 0.07404 -s 2 -d 3 -p tcp -e 1040 -c 0 -i 36 -a 0 -x {0.0 3.0 13 ------- null}
r -t 0.07488 -s 2 -d 3 -p tcp -e 1040 -c 0 -i 21 -a 0 -x {0.0 3.0 7 ------- null}
+ -t 0.07488 -s 3 -d 2 -p ack -e 40 -c 0 -i 44 -a 0 -x {3.0 0.0 7 ------- null}
- -t 0.07488 -s 3 -d 2 -p ack -e 40 -c 0 -i 44 -a 0 -x {3.0 0.0 7 ------- null}
h -t 0.07488 -s 3 -d 2 -p ack -e 40 -c 0 -i 44 -a 0 -x {3.0 0.0 -1 ------- null}
r -t 0.07604 -s 3 -d 2 -p ack -e 40 -c 0 -i 44 -a 0 -x {3.0 0.0 7 ------- null}
+ -t 0.07604 -s 2 -d 0 -p ack -e 40 -c 0 -i 44 -a 0 -x {3.0 0.0 7 ------- null}
- -t 0.07604 -s 2 -d 0 -p ack -e 40 -c 0 -i 44 -a 0 -x {3.0 0.0 7 ------- null}
h -t 0.07604 -s 2 -d 0 -p ack -e 40 -c 0 -i 44 -a 0 -x {3.0 0.0 -1 ------- null}
r -t 0.0772 -s 2 -d 0 -p ack -e 40 -c 0 -i 44 -a 0 -x {3.0 0.0 7 ------- null}
+ -t 0.0772 -s 0 -d 2 -p tcp -e 1040 -c 0 -i 45 -a 0 -x {0.0 3.0 15 ------- null}
+ -t 0.0772 -s 0 -d 2 -p tcp -e 1040 -c 0 -i 46 -a 0 -x {0.0 3.0 16 ------- null}
- -t 0.0772 -s 1 -d 2 -p tcp -e 1040 -c 0 -i 42 -a 0 -x {1.0 3.1 13 ------- null}
h -t 0.0772 -s 1 -d 2 -p tcp -e 1040 -c 0 -i 42 -a 0 -x {1.0 3.1 -1 ------- null}
- -t 0.0772 -s 0 -d 2 -p tcp -e 1040 -c 0 -i 45 -a 0 -x {0.0 3.0 15 ------- null}
h -t 0.0772 -s 0 -d 2 -p tcp -e 1040 -c 0 -i 45 -a 0 -x {0.0 3.0 -1 ------- null}
- -t 0.07804 -s 2 -d 3 -p tcp -e 1040 -c 0 -i 24 -a 0 -x {0.0 3.0 9 ------- null}
h -t 0.07804 -s 2 -d 3 -p tcp -e 1040 -c 0 -i 24 -a 0 -x {0.0 3.0 -1 ------- null}
r -t 0.0782 -s 1 -d 2 -p tcp -e 1040 -c 0 -i 40 -a 0 -x {1.0 3.1 12 ------- null}
+ -t 0.0782 -s 2 -d 3 -p tcp -e 1040 -c 0 -i 40 -a 0 -x {1.0 3.1 12 ------- null}
r -t 0.0782 -s 0 -d 2 -p tcp -e 1040 -c 0 -i 37 -a 0 -x {0.0 3.0 14 ------- null}
+ -t 0.0782 -s 2 -d 3 -p tcp -e 1040 -c 0 -i 37 -a 0 -x {0.0 3.0 14 ------- null}
r -t 0.07904 -s 2 -d 3 -p tcp -e 1040 -c 0 -i 22 -a 0 -x {0.0 3.0 8 ------- null}
+ -t 0.07904 -s 3 -d 2 -p ack -e 40 -c 0 -i 47 -a 0 -x {3.0 0.0 8 ------- null}
- -t 0.07904 -s 3 -d 2 -p ack -e 40 -c 0 -i 47 -a 0 -x {3.0 0.0 8 ------- null}
h -t 0.07904 -s 3 -d 2 -p ack -e 40 -c 0 -i 47 -a 0 -x {3.0 0.0 -1 ------- null}
r -t 0.0802 -s 3 -d 2 -p ack -e 40 -c 0 -i 47 -a 0 -x {3.0 0.0 8 ------- null}
+ -t 0.0802 -s 2 -d 0 -p ack -e 40 -c 0 -i 47 -a 0 -x {3.0 0.0 8 ------- null}
- -t 0.0802 -s 2 -d 0 -p ack -e 40 -c 0 -i 47 -a 0 -x {3.0 0.0 8 ------- null}
h -t 0.0802 -s 2 -d 0 -p ack -e 40 -c 0 -i 47 -a 0 -x {3.0 0.0 -1 ------- null}
r -t 0.08136 -s 2 -d 0 -p ack -e 40 -c 0 -i 47 -a 0 -x {3.0 0.0 8 ------- null}
+ -t 0.08136 -s 0 -d 2 -p tcp -e 1040 -c 0 -i 48 -a 0 -x {0.0 3.0 17 ------- null}
+ -t 0.08136 -s 0 -d 2 -p tcp -e 1040 -c 0 -i 49 -a 0 -x {0.0 3.0 18 ------- null}
- -t 0.08136 -s 1 -d 2 -p tcp -e 1040 -c 0 -i 43 -a 0 -x {1.0 3.1 14 ------- null}
h -t 0.08136 -s 1 -d 2 -p tcp -e 1040 -c 0 -i 43 -a 0 -x {1.0 3.1 -1 ------- null}
- -t 0.08136 -s 0 -d 2 -p tcp -e 1040 -c 0 -i 46 -a 0 -x {0.0 3.0 16 ------- null}
h -t 0.08136 -s 0 -d 2 -p tcp -e 1040 -c 0 -i 46 -a 0 -x {0.0 3.0 -1 ------- null}
- -t 0.0822 -s 2 -d 3 -p tcp -e 1040 -c 0 -i 27 -a 0 -x {1.0 3.1 7 ------- null}
h -t 0.0822 -s 2 -d 3 -p tcp -e 1040 -c 0 -i 27 -a 0 -x {1.0 3.1 -1 ------- null}
r -t 0.08236 -s 1 -d 2 -p tcp -e 1040 -c 0 -i 42 -a 0 -x {1.0 3.1 13 ------- null}
+ -t 0.08236 -s 2 -d 3 -p tcp -e 1040 -c 0 -i 42 -a 0 -x {1.0 3.1 13 ------- null}
r -t 0.08236 -s 0 -d 2 -p tcp -e 1040 -c 0 -i 45 -a 0 -x {0.0 3.0 15 ------- null}
+ -t 0.08236 -s 2 -d 3 -p tcp -e 1040 -c 0 -i 45 -a 0 -x {0.0 3.0 15 ------- null}
r -t 0.0832 -s 2 -d 3 -p tcp -e 1040 -c 0 -i 24 -a 0 -x {0.0 3.0 9 ------- null}
+ -t 0.0832 -s 3 -d 2 -p ack -e 40 -c 0 -i 50 -a 0 -x {3.0 0.0 9 ------- null}
- -t 0.0832 -s 3 -d 2 -p ack -e 40 -c 0 -i 50 -a 0 -x {3.0 0.0 9 ------- null}
h -t 0.0832 -s 3 -d 2 -p ack -e 40 -c 0 -i 50 -a 0 -x {3.0 0.0 -1 ------- null}
r -t 0.08436 -s 3 -d 2 -p ack -e 40 -c 0 -i 50 -a 0 -x {3.0 0.0 9 ------- null}
+ -t 0.08436 -s 2 -d 0 -p ack -e 40 -c 0 -i 50 -a 0 -x {3.0 0.0 9 ------- null}
- -t 0.08436 -s 2 -d 0 -p ack -e 40 -c 0 -i 50 -a 0 -x {3.0 0.0 9 ------- null}
h -t 0.08436 -s 2 -d 0 -p ack -e 40 -c 0 -i 50 -a 0 -x {3.0 0.0 -1 ------- null}
r -t 0.08552 -s 2 -d 0 -p ack -e 40 -c 0 -i 50 -a 0 -x {3.0 0.0 9 ------- null}
+ -t 0.08552 -s 0 -d 2 -p tcp -e 1040 -c 0 -i 51 -a 0 -x {0.0 3.0 19 ------- null}
+ -t 0.08552 -s 0 -d 2 -p tcp -e 1040 -c 0 -i 52 -a 0 -x {0.0 3.0 20 ------- null}
- -t 0.08552 -s 0 -d 2 -p tcp -e 1040 -c 0 -i 48 -a 0 -x {0.0 3.0 17 ------- null}
h -t 0.08552 -s 0 -d 2 -p tcp -e 1040 -c 0 -i 48 -a 0 -x {0.0 3.0 -1 ------- null}
- -t 0.08636 -s 2 -d 3 -p tcp -e 1040 -c 0 -i 25 -a 0 -x {0.0 3.0 10 ------- null}
h -t 0.08636 -s 2 -d 3 -p tcp -e 1040 -c 0 -i 25 -a 0 -x {0.0 3.0 -1 ------- null}
r -t 0.08652 -s 1 -d 2 -p tcp -e 1040 -c 0 -i 43 -a 0 -x {1.0 3.1 14 ------- null}
+ -t 0.08652 -s 2 -d 3 -p tcp -e 1040 -c 0 -i 43 -a 0 -x {1.0 3.1 14 ------- null}
r -t 0.08652 -s 0 -d 2 -p tcp -e 1040 -c 0 -i 46 -a 0 -x {0.0 3.0 16 ------- null}
+ -t 0.08652 -s 2 -d 3 -p tcp -e 1040 -c 0 -i 46 -a 0 -x {0.0 3.0 16 ------- null}
r -t 0.08736 -s 2 -d 3 -p tcp -e 1040 -c 0 -i 27 -a 0 -x {1.0 3.1 7 ------- null}
+ -t 0.08736 -s 3 -d 2 -p ack -e 40 -c 0 -i 53 -a 0 -x {3.1 1.0 7 ------- null}
- -t 0.08736 -s 3 -d 2 -p ack -e 40 -c 0 -i 53 -a 0 -x {3.1 1.0 7 ------- null}
h -t 0.08736 -s 3 -d 2 -p ack -e 40 -c 0 -i 53 -a 0 -x {3.1 1.0 -1 ------- null}
r -t 0.08852 -s 3 -d 2 -p ack -e 40 -c 0 -i 53 -a 0 -x {3.1 1.0 7 ------- null}
+ -t 0.08852 -s 2 -d 1 -p ack -e 40 -c 0 -i 53 -a 0 -x {3.1 1.0 7 ------- null}