V -t * -v 1.0a5 -a 0
A -t * -n 1 -p 0 -o 0x7fffffff -c 30 -a 1
A -t * -h 1 -m 1073741823 -s 0
n -t * -a 0 -s 0 -S UP -v circle -c black -i black
n -t * -a 1 -s 1 -S UP -v circle -c black -i black
n -t * -a 2 -s 2 -S UP -v circle -c black -i black
n -t * -a 3 -s 3 -S UP -v circle -c black -i black
l -t * -s 0 -d 2 -S UP -r 2000000 -D 0.001 -c black
l -t * -s 1 -d 2 -S UP -r 2000000 -D 0.001 -c black
l -t * -s 2 -d 3 -S UP -r 2000000 -D 0.001 -c black
+ -t 0.01 -s 0 -d 2 -p tcp -e 40 -c 0 -i 0 -a 0 -x {0.0 3.0 0 ------- null}
- -t 0.01 -s 0 -d 2 -p tcp -e 40 -c 0 -i 0 -a 0 -x {0.0 3.0 0 ------- null}
h -t 0.01 -s 0 -d 2 -p tcp -e 40 -c 0 -i 0 -a 0 -x {0.0 3.0 -1 ------- null}
r -t 0.01116 -s 0 -d 2 -p tcp -e 40 -c 0 -i 0 -a 0 -x {0.0 3.0 0 ------- null}
+ -t 0.01116 -s 2 -d 3 -p tcp -e 40 -c 0 -i 0 -a 0 -x {0.0 3.0 0 ------- null}
- -t 0.01116 -s 2 -d 3 -p tcp -e 40 -c 0 -i 0 -a 0 -x {0.0 3.0 0 ------- null}
h -t 0.01116 -s 2 -d 3 -p tcp -e 40 -c 0 -i 0 -a 0 -x {0.0 3.0 -1 ------- null}
r -t 0.01232 -s 2 -d 3 -p tcp -e 40 -c 0 -i 0 -a 0 -x {0.0 3.0 0 ------- null}
+ -t 0.01232 -s 3 -d 2 -p ack -e 40 -c 0 -i 1 -a 0 -x {3.0 0.0 0 ------- null}
- -t 0.01232 -s 3 -d 2 -p ack -e 40 -c 0 -i 1 -a 0 -x {3.0 0.0 0 ------- null}
h -t 0.01232 -s 3 -d 2 -p ack -e 40 -c 0 -i 1 -a 0 -x {3.0 0.0 -1 ------- null}
r -t 0.01348 -s 3 -d 2 -p ack -e 40 -c 0 -i 1 -a 0 -x {3.0 0.0 0 ------- null}
+ -t 0.01348 -s 2 -d 0 -p ack -e 40 -c 0 -i 1 -a 0 -x {3.0 0.0 0 ------- null}
- -t 0.01348 -s 2 -d 0 -p ack -e 40 -c 0 -i 1 -a 0 -x {3.0 0.0 0 ------- null}
h -t 0.01348 -s 2 -d 0 -p ack -e 40 -c 0 -i 1 -a 0 -x {3.0 0.0 -1 ------- null}
r -t 0.01464 -s 2 -d 0 -p ack -e 40 -c 0 -i 1 -a 0 -x {3.0 0.0 0 ------- null}
+ -t 0.01464 -s 0 -d 2 -p tcp -e 1040 -c 0 -i 2 -a 0 -x {0.0 3.0 1 ------- null}
- -t 0.01464 -s 0 -d 2 -p tcp -e 1040 -c 0 -i 2 -a 0 -x {0.0 3.0 1 ------- null}
h -t 0.01464 -s 0 -d 2 -p tcp -e 1040 -c 0 -i 2 -a 0 -x {0.0 3.0 -1 ------- null}
+ -t 0.01464 -s 0 -d 2 -p tcp -e 1040 -c 0 -i 3 -a 0 -x {0.0 3.0 2 ------- null}
- -t 0.0188 -s 0 -d 2 -p tcp -e 1040 -c 0 -i 3 -a 0 -x {0.0 3.0 2 ------- null}
h -t 0.0188 -s 0 -d 2 -p tcp -e 1040 -c 0 -i 3 -a 0 -x {0.0 3.0 -1 ------- null}
r -t 0.0198 -s 0 -d 2 -p tcp -e 1040 -c 0 -i 2 -a 0 -x {0.0 3.0 1 ------- null}
+ -t 0.0198 -s 2 -d 3 -p tcp -e 1040 -c 0 -i 2 -a 0 -x {0.0 3.0 1 ------- null}
- -t 0.0198 -s 2 -d 3 -p tcp -e 1040 -c 0 -i 2 -a 0 -x {0.0 3.0 1 ------- null}
h -t 0.0198 -s 2 -d 3 -p tcp -e 1040 -c 0 -i 2 -a 0 -x {0.0 3.0 -1 ------- null}
r -t 0.02396 -s 0 -d 2 -p tcp -e 1040 -c 0 -i 3 -a 0 -x {0.0 3.0 2 ------- null}
+ -t 0.02396 -s 2 -d 3 -p tcp -e 1040 -c 0 -i 3 -a 0 -x {0.0 3.0 2 ------- null}
- -t 0.02396 -s 2 -d 3 -p tcp -e 1040 -c 0 -i 3 -a 0 -x {0.0 3.0 2 ------- null}
h -t 0.02396 -s 2 -d 3 -p tcp -e 1040 -c 0 -i 3 -a 0 -x {0.0 3.0 -1 ------- null}
r -t 0.02496 -s 2 -d 3 -p tcp -e 1040 -c 0 -i 2 -a 0 -x {0.0 3.0 1 ------- null}
+ -t 0.02496 -s 3 -d 2 -p ack -e 40 -c 0 -i 4 -a 0 -x {3.0 0.0 1 ------- null}
- -t 0.02496 -s 3 -d 2 -p ack -e 40 -c 0 -i 4 -a 0 -x {3.0 0.0 1 ------- null}
h -t 0.02496 -s 3 -d 2 -p ack -e 40 -c 0 -i 4 -a 0 -x {3.0 0.0 -1 ------- null}
r -t 0.02612 -s 3 -d 2 -p ack -e 40 -c 0 -i 4 -a 0 -x {3.0 0.0 1 ------- null}
+ -t 0.02612 -s 2 -d 0 -p ack -e 40 -c 0 -i 4 -a 0 -x {3.0 0.0 1 ------- null}
- -t 0.02612 -s 2 -d 0 -p ack -e 40 -c 0 -i 4 -a 0 -x {3.0 0.0 1 ------- null}
h -t 0.02612 -s 2 -d 0 -p ack -e 40 -c 0 -i 4 -a 0 -x {3.0 0.0 -1 ------- null}
r -t 0.02728 -s 2 -d 0 -p ack -e 40 -c 0 -i 4 -a 0 -x {3.0 0.0 1 ------- null}
+ -t 0.02728 -s 0 -d 2 -p tcp -e 1040 -c 0 -i 5 -a 0 -x {0.0 3.0 3 ------- null}
- -t 0.02728 -s 0 -d 2 -p tcp -e 1040 -c 0 -i 5 -a 0 -x {0.0 3.0 3 ------- null}
h -t 0.02728 -s 0 -d 2 -p tcp -e 1040 -c 0 -i 5 -a 0 -x {0.0 3.0 -1 ------- null}
+ -t 0.02728 -s 0 -d 2 -p tcp -e 1040 -c 0 -i 6 -a 0 -x {0.0 3.0 4 ------- null}
r -t 0.02912 -s 2 -d 3 -p tcp -e 1040 -c 0 -i 3 -a 0 -x {0.0 3.0 2 ------- null}
+ -t 0.02912 -s 3 -d 2 -p ack -e 40 -c 0 -i 7 -a 0 -x {3.0 0.0 2 ------- null}
- -t 0.02912 -s 3 -d 2 -p ack -e 40 -c 0 -i 7 -a 0 -x {3.0 0.0 2 ------- null}
h -t 0.02912 -s 3 -d 2 -p ack -e 40 -c 0 -i 7 -a 0 -x {3.0 0.0 -1 ------- null}
r -t 0.03028 -s 3 -d 2 -p ack -e 40 -c 0 -i 7 -a 0 -x {3.0 0.0 2 ------- null}
+ -t 0.03028 -s 2 -d 0 -p ack -e 40 -c 0 -i 7 -a 0 -x {3.0 0.0 2 ------- null}
- -t 0.03028 -s 2 -d 0 -p ack -e 40 -c 0 -i 7 -a 0 -x {3.0 0.0 2 ------- null}
h -t 0.03028 -s 2 -d 0 -p ack -e 40 -c 0 -i 7 -a 0 -x {3.0 0.0 -1 ------- null}
- -t 0.03144 -s 0 -d 2 -p tcp -e 1040 -c 0 -i 6 -a 0 -x {0.0 3.0 4 ------- null}
h -t 0.03144 -s 0 -d 2 -p tcp -e 1040 -c 0 -i 6 -a 0 -x {0.0 3.0 -1 ------- null}
r -t 0.03144 -s 2 -d 0 -p ack -e 40 -c 0 -i 7 -a 0 -x {3.0 0.0 2 ------- null}
+ -t 0.03144 -s 0 -d 2 -p tcp -e 1040 -c 0 -i 8 -a 0 -x {0.0 3.0 5 ------- null}
+ -t 0.03144 -s 0 -d 2 -p tcp -e 1040 -c 0 -i 9 -a 0 -x {0.0 3.0 6 ------- null}
r -t 0.03244 -s 0 -d 2 -p tcp -e 1040 -c 0 -i 5 -a 0 -x {0.0 3.0 3 ------- null}
+ -t 0.03244 -s 2 -d 3 -p tcp -e 1040 -c 0 -i 5 -a 0 -x {0.0 3.0 3 ------- null}
- -t 0.03244 -s 2 -d 3 -p tcp -e 1040 -c 0 -i 5 -a 0 -x {0.0 3.0 3 ------- null}
h -t 0.03244 -s 2 -d 3 -p tcp -e 1040 -c 0 -i 5 -a 0 -x {0.0 3.0 -1 ------- null}
- -t 0.0356 -s 0 -d 2 -p tcp -e 1040 -c 0 -i 8 -a 0 -x {0.0 3.0 5 ------- null}
h -t 0.0356 -s 0 -d 2 -p tcp -e 1040 -c 0 -i 8 -a 0 -x {0.0 3.0 -1 ------- null}
r -t 0.0366 -s 0 -d 2 -p tcp -e 1040 -c 0 -i 6 -a 0 -x {0.0 3.0 4 ------- null}
+ -t 0.0366 -s 2 -d 3 -p tcp -e 1040 -c 0 -i 6 -a 0 -x {0.0 3.0 4 ------- null}
- -t 0.0366 -s 2 -d 3 -p tcp -e 1040 -c 0 -i 6 -a 0 -x {0.0 3.0 4 ------- null}
h -t 0.0366 -s 2 -d 3 -p tcp -e 1040 -c 0 -i 6 -a 0 -x {0.0 3.0 -1 ------- null}
r -t 0.0376 -s 2 -d 3 -p tcp -e 1040 -c 0 -i 5 -a 0 -x {0.0 3.0 3 ------- null}
+ -t 0.0376 -s 3 -d 2 -p ack -e 40 -c 0 -i 10 -a 0 -x {3.0 0.0 3 ------- null}
- -t 0.0376 -s 3 -d 2 -p ack -e 40 -c 0 -i 10 -a 0 -x {3.0 0.0 3 ------- null}
h -t 0.0376 -s 3 -d 2 -p ack -e 40 -c 0 -i 10 -a 0 -x {3.0 0.0 -1 ------- null}
r -t 0.03876 -s 3 -d 2 -p ack -e 40 -c 0 -i 10 -a 0 -x {3.0 0.0 3 ------- null}
+ -t 0.03876 -s 2 -d 0 -p ack -e 40 -c 0 -i 10 -a 0 -x {3.0 0.0 3 ------- null}
- -t 0.03876 -s 2 -d 0 -p ack -e 40 -c 0 -i 10 -a 0 -x {3.0 0.0 3 ------- null}
h -t 0.03876 -s 2 -d 0 -p ack -e 40 -c 0 -i 10 -a 0 -x {3.0 0.0 -1 ------- null}
- -t 0.03976 -s 0 -d 2 -p tcp -e 1040 -c 0 -i 9 -a 0 -x {0.0 3.0 6 ------- null}
h -t 0.03976 -s 0 -d 2 -p tcp -e 1040 -c 0 -i 9 -a 0 -x {0.0 3.0 -1 ------- null}
r -t 0.03992 -s 2 -d 0 -p ack -e 40 -c 0 -i 10 -a 0 -x {3.0 0.0 3 ------- null}
+ -t 0.03992 -s 0 -d 2 -p tcp -e 1040 -c 0 -i 11 -a 0 -x {0.0 3.0 7 ------- null}
+ -t 0.03992 -s 0 -d 2 -p tcp -e 1040 -c 0 -i 12 -a 0 -x {0.0 3.0 8 ------- null}
r -t 0.04076 -s 0 -d 2 -p tcp -e 1040 -c 0 -i 8 -a 0 -x {0.0 3.0 5 ------- null}
+ -t 0.04076 -s 2 -d 3 -p tcp -e 1040 -c 0 -i 8 -a 0 -x {0.0 3.0 5 ------- null}
- -t 0.04076 -s 2 -d 3 -p tcp -e 1040 -c 0 -i 8 -a 0 -x {0.0 3.0 5 ------- null}
h -t 0.04076 -s 2 -d 3 -p tcp -e 1040 -c 0 -i 8 -a 0 -x {0.0 3.0 -1 ------- null}
r -t 0.04176 -s 2 -d 3 -p tcp -e 1040 -c 0 -i 6 -a 0 -x {0.0 3.0 4 ------- null}
+ -t 0.04176 -s 3 -d 2 -p ack -e 40 -c 0 -i 13 -a 0 -x {3.0 0.0 4 ------- null}
- -t 0.04176 -s 3 -d 2 -p ack -e 40 -c 0 -i 13 -a 0 -x {3.0 0.0 4 ------- null}
h -t 0.04176 -s 3 -d 2 -p ack -e 40 -c 0 -i 13 -a 0 -x {3.0 0.0 -1 ------- null}
r -t 0.04292 -s 3 -d 2 -p ack -e 40 -c 0 -i 13 -a 0 -x {3.0 0.0 4 ------- null}
+ -t 0.04292 -s 2 -d 0 -p ack -e 40 -c 0 -i 13 -a 0 -x {3.0 0.0 4 ------- null}
- -t 0.04292 -s 2 -d 0 -p ack -e 40 -c 0 -i 13 -a 0 -x {3.0 0.0 4 ------- null}
h -t 0.04292 -s 2 -d 0 -p ack -e 40 -c 0 -i 13 -a 0 -x {3.0 0.0 -1 ------- null}
- -t 0.04392 -s 0 -d 2 -p tcp -e 1040 -c 0 -i 11 -a 0 -x {0.0 3.0 7 ------- null}
h -t 0.04392 -s 0 -d 2 -p tcp -e 1040 -c 0 -i 11 -a 0 -x {0.0 3.0 -1 ------- null}
r -t 0.04408 -s 2 -d 0 -p ack -e 40 -c 0 -i 13 -a 0 -x {3.0 0.0 4 ------- null}
+ -t 0.04408 -s 0 -d 2 -p tcp -e 1040 -c 0 -i 14 -a 0 -x {0.0 3.0 9 ------- null}
+ -t 0.04408 -s 0 -d 2 -p tcp -e 1040 -c 0 -i 15 -a 0 -x {0.0 3.0 10 ------- null}
r -t 0.04492 -s 0 -d 2 -p tcp -e 1040 -c 0 -i 9 -a 0 -x {0.0 3.0 6 ------- null}
+ -t 0.04492 -s 2 -d 3 -p tcp -e 1040 -c 0 -i 9 -a 0 -x {0.0 3.0 6 ------- null}
- -t 0.04492 -s 2 -d 3 -p tcp -e 1040 -c 0 -i 9 -a 0 -x {0.0 3.0 6 ------- null}
h -t 0.04492 -s 2 -d 3 -p tcp -e 1040 -c 0 -i 9 -a 0 -x {0.0 3.0 -1 ------- null}
r -t 0.04592 -s 2 -d 3 -p tcp -e 1040 -c 0 -i 8 -a 0 -x {0.0 3.0 5 ------- null}
+ -t 0.04592 -s 3 -d 2 -p ack -e 40 -c 0 -i 16 -a 0 -x {3.0 0.0 5 ------- null}
- -t 0.04592 -s 3 -d 2 -p ack -e 40 -c 0 -i 16 -a 0 -x {3.0 0.0 5 ------- null}
h -t 0.04592 -s 3 -d 2 -p ack -e 40 -c 0 -i 16 -a 0 -x {3.0 0.0 -1 ------- null}
r -t 0.04708 -s 3 -d 2 -p ack -e 40 -c 0 -i 16 -a 0 -x {3.0 0.0 5 ------- null}
+ -t 0.04708 -s 2 -d 0 -p ack -e 40 -c 0 -i 16 -a 0 -x {3.0 0.0 5 ------- null}
- -t 0.04708 -s 2 -d 0 -p ack -e 40 -c 0 -i 16 -a 0 -x {3.0 0.0 5 ------- null}
h -t 0.04708 -s 2 -d 0 -p ack -e 40 -c 0 -i 16 -a 0 -x {3.0 0.0 -1 ------- null}
- -t 0.04808 -s 0 -d 2 -p tcp -e 1040 -c 0 -i 12 -a 0 -x {0.0 3.0 8 ------- null}
h -t 0.04808 -s 0 -d 2 -p tcp -e 1040 -c 0 -i 12 -a 0 -x {0.0 3.0 -1 ------- null}
r -t 0.04824 -s 2 -d 0 -p ack -e 40 -c 0 -i 16 -a 0 -x {3.0 0.0 5 ------- null}
+ -t 0.04824 -s 0 -d 2 -p tcp -e 1040 -c 0 -i 17 -a 0 -x {0.0 3.0 11 ------- null}
+ -t 0.04824 -s 0 -d 2 -p tcp -e 1040 -c 0 -i 18 -a 0 -x {0.0 3.0 12 ------- null}
r -t 0.04908 -s 0 -d 2 -p tcp -e 1040 -c 0 -i 11 -a 0 -x {0.0 3.0 7 ------- null}
+ -t 0.04908 -s 2 -d 3 -p tcp -e 1040 -c 0 -i 11 -a 0 -x {0.0 3.0 7 ------- null}
- -t 0.04908 -s 2 -d 3 -p tcp -e 1040 -c 0 -i 11 -a 0 -x {0.0 3.0 7 ------- null}
h -t 0.04908 -s 2 -d 3 -p tcp -e 1040 -c 0 -i 11 -a 0 -x {0.0 3.0 -1 ------- null}
r -t 0.05008 -s 2 -d 3 -p tcp -e 1040 -c 0 -i 9 -a 0 -x {0.0 3.0 6 ------- null}
+ -t 0.05008 -s 3 -d 2 -p ack -e 40 -c 0 -i 19 -a 0 -x {3.0 0.0 6 ------- null}
- -t 0.05008 -s 3 -d 2 -p ack -e 40 -c 0 -i 19 -a 0 -x {3.0 0.0 6 ------- null}
h -t 0.05008 -s 3 -d 2 -p ack -e 40 -c 0 -i 19 -a 0 -x {3.0 0.0 -1 ------- null}
r -t 0.05124 -s 3 -d 2 -p ack -e 40 -c 0 -i 19 -a 0 -x {3.0 0.0 6 ------- null}
+ -t 0.05124 -s 2 -d 0 -p ack -e 40 -c 0 -i 19 -a 0 -x {3.0 0.0 6 ------- null}
- -t 0.05124 -s 2 -d 0 -p ack -e 40 -c 0 -i 19 -a 0 -x {3.0 0.0 6 ------- null}
h -t 0.05124 -s 2 -d 0 -p ack -e 40 -c 0 -i 19 -a 0 -x {3.0 0.0 -1 ------- null}
- -t 0.05224 -s 0 -d 2 -p tcp -e 1040 -c 0 -i 14 -a 0 -x {0.0 3.0 9 ------- null}
h -t 0.05224 -s 0 -d 2 -p tcp -e 1040 -c 0 -i 14 -a 0 -x {0.0 3.0 -1 ------- null}
r -t 0.0524 -s 2 -d 0 -p ack -e 40 -c 0 -i 19 -a 0 -x {3.0 0.0 6 ------- null}
+ -t 0.0524 -s 0 -d 2 -p tcp -e 1040 -c 0 -i 20 -a 0 -x {0.0 3.0 13 ------- null}
+ -t 0.0524 -s 0 -d 2 -p tcp -e 1040 -c 0 -i 21 -a 0 -x {0.0 3.0 14 ------- null}
r -t 0.05324 -s 0 -d 2 -p tcp -e 1040 -c 0 -i 12 -a 0 -x {0.0 3.0 8 ------- null}
+ -t 0.05324 -s 2 -d 3 -p tcp -e 1040 -c 0 -i 12 -a 0 -x {0.0 3.0 8 ------- null}
- -t 0.05324 -s 2 -d 3 -p tcp -e 1040 -c 0 -i 12 -a 0 -x {0.0 3.0 8 ------- null}
h -t 0.05324 -s 2 -d 3 -p tcp -e 1040 -c 0 -i 12 -a 0 -x {0.0 3.0 -1 ------- null}
r -t 0.05424 -s 2 -d 3 -p tcp -e 1040 -c 0 -i 11 -a 0 -x {0.0 3.0 7 ------- null}
+ -t 0.05424 -s 3 -d 2 -p ack -e 40 -c 0 -i 22 -a 0 -x {3.0 0.0 7 ------- null}
- -t 0.05424 -s 3 -d 2 -p ack -e 40 -c 0 -i 22 -a 0 -x {3.0 0.0 7 ------- null}
h -t 0.05424 -s 3 -d 2 -p ack -e 40 -c 0 -i 22 -a 0 -x {3.0 0.0 -1 ------- null}
r -t 0.0554 -s 3 -d 2 -p ack -e 40 -c 0 -i 22 -a 0 -x {3.0 0.0 7 ------- null}
+ -t 0.0554 -s 2 -d 0 -p ack -e 40 -c 0 -i 22 -a 0 -x {3.0 0.0 7 ------- null}
- -t 0.0554 -s 2 -d 0 -p ack -e 40 -c 0 -i 22 -a 0 -x {3.0 0.0 7 ------- null}
h -t 0.0554 -s 2 -d 0 -p ack -e 40 -c 0 -i 22 -a 0 -x {3.0 0.0 -1 ------- null}
- -t 0.0564 -s 0 -d 2 -p tcp -e 1040 -c 0 -i 15 -a 0 -x {0.0 3.0 10 ------- null}
h -t 0.0564 -s 0 -d 2 -p tcp -e 1040 -c 0 -i 15 -a 0 -x {0.0 3.0 -1 ------- null}
r -t 0.05656 -s 2 -d 0 -p ack -e 40 -c 0 -i 22 -a 0 -x {3.0 0.0 7 ------- null}
+ -t 0.05656 -s 0 -d 2 -p tcp -e 1040 -c 0 -i 23 -a 0 -x {0.0 3.0 15 ------- null}
+ -t 0.05656 -s 0 -d 2 -p tcp -e 1040 -c 0 -i 24 -a 0 -x {0.0 3.0 16 ------- null}
r -t 0.0574 -s 0 -d 2 -p tcp -e 1040 -c 0 -i 14 -a 0 -x {0.0 3.0 9 ------- null}
+ -t 0.0574 -s 2 -d 3 -p tcp -e 1040 -c 0 -i 14 -a 0 -x {0.0 3.0 9 ------- null}
- -t 0.0574 -s 2 -d 3 -p tcp -e 1040 -c 0 -i 14 -a 0 -x {0.0 3.0 9 ------- null}
h -t 0.0574 -s 2 -d 3 -p tcp -e 1040 -c 0 -i 14 -a 0 -x {0.0 3.0 -1 ------- null}
r -t 0.0584 -s 2 -d 3 -p tcp -e 1040 -c 0 -i 12 -a 0 -x {0.0 3.0 8 ------- null}
+ -t 0.0584 -s 3 -d 2 -p ack -e 40 -c 0 -i 25 -a 0 -x {3.0 0.0 8 ------- null}
- -t 0.0584 -s 3 -d 2 -p ack -e 40 -c 0 -i 25 -a 0 -x {3.0 0.0 8 ------- null}
h -t 0.0584 -s 3 -d 2 -p ack -e 40 -c 0 -i 25 -a 0 -x {3.0 0.0 -1 ------- null}
r -t 0.05956 -s 3 -d 2 -p ack -e 40 -c 0 -i 25 -a 0 -x {3.0 0.0 8 ------- null}
+ -t 0.05956 -s 2 -d 0 -p ack -e 40 -c 0 -i 25 -a 0 -x {3.0 0.0 8 ------- null}
- -t 0.05956 -s 2 -d 0 -p ack -e 40 -c 0 -i 25 -a 0 -x {3.0 0.0 8 ------- null}
h -t 0.05956 -s 2 -d 0 -p ack -e 40 -c 0 -i 25 -a 0 -x {3.0 0.0 -1 ------- null}
- -t 0.06056 -s 0 -d 2 -p tcp -e 1040 -c 0 -i 17 -a 0 -x {0.0 3.0 11 ------- null}
h -t 0.06056 -s 0 -d 2 -p tcp -e 1040 -c 0 -i 17 -a 0 -x {0.0 3.0 -1 ------- null}
r -t 0.06072 -s 2 -d 0 -p ack -e 40 -c 0 -i 25 -a 0 -x {3.0 0.0 8 ------- null}
+ -t 0.06072 -s 0 -d 2 -p tcp -e 1040 -c 0 -i 26 -a 0 -x {0.0 3.0 17 ------- null}
+ -t 0.06072 -s 0 -d 2 -p tcp -e 1040 -c 0 -i 27 -a 0 -x {0.0 3.0 18 ------- null}
r -t 0.06156 -s 0 -d 2 -p tcp -e 1040 -c 0 -i 15 -a 0 -x {0.0 3.0 10 ------- null}
+ -t 0.06156 -s 2 -d 3 -p tcp -e 1040 -c 0 -i 15 -a 0 -x {0.0 3.0 10 ------- null}
- -t 0.06156 -s 2 -d 3 -p tcp -e 1040 -c 0 -i 15 -a 0 -x {0.0 3.0 10 ------- null}
h -t 0.06156 -s 2 -d 3 -p tcp -e 1040 -c 0 -i 15 -a 0 -x {0.0 3.0 -1 ------- null}
r -t 0.06256 -s 2 -d 3 -p tcp -e 1040 -c 0 -i 14 -a 0 -x {0.0 3.0 9 ------- null}
+ -t 0.06256 -s 3 -d 2 -p ack -e 40 -c 0 -i 28 -a 0 -x {3.0 0.0 9 ------- null}
- -t 0.06256 -s 3 -d 2 -p ack -e 40 -c 0 -i 28 -a 0 -x {3.0 0.0 9 ------- null}
h -t 0.06256 -s 3 -d 2 -p ack -e 40 -c 0 -i 28 -a 0 -x {3.0 0.0 -1 ------- null}
r -t 0.06372 -s 3 -d 2 -p ack -e 40 -c 0 -i 28 -a 0 -x {3.0 0.0 9 ------- null}
+ -t 0.06372 -s 2 -d 0 -p ack -e 40 -c 0 -i 28 -a 0 -x {3.0 0.0 9 ------- null}
- -t 0.06372 -s 2 -d 0 -p ack -e 40 -c 0 -i 28 -a 0 -x {3.0 0.0 9 ------- null}
h -t 0.06372 -s 2 -d 0 -p ack -e 40 -c 0 -i 28 -a 0 -x {3.0 0.0 -1 ------- null}
- -t 0.06472 -s 0 -d 2 -p tcp -e 1040 -c 0 -i 18 -a 0 -x {0.0 3.0 12 ------- null}
h -t 0.06472 -s 0 -d 2 -p tcp -e 1040 -c 0 -i 18 -a 0 -x {0.0 3.0 -1 ------- null}
r -t 0.06488 -s 2 -d 0 -p ack -e 40 -c 0 -i 28 -a 0 -x {3.0 0.0 9 ------- null}
+ -t 0.06488 -s 0 -d 2 -p tcp -e 1040 -c 0 -i 29 -a 0 -x {0.0 3.0 19 ------- null}
+ -t 0.06488 -s 0 -d 2 -p tcp -e 1040 -c 0 -i 30 -a 0 -x {0.0 3.0 20 ------- null}
r -t 0.06572 -s 0 -d 2 -p tcp -e 1040 -c 0 -i 17 -a 0 -x {0.0 3.0 11 ------- null}
+ -t 0.06572 -s 2 -d 3 -p tcp -e 1040 -c 0 -i 17 -a 0 -x {0.0 3.0 11 ------- null}
- -t 0.06572 -s 2 -d 3 -p tcp -e 1040 -c 0 -i 17 -a 0 -x {0.0 3.0 11 ------- null}
h -t 0.06572 -s 2 -d 3 -p tcp -e 1040 -c 0 -i 17 -a 0 -x {0.0 3.0 -1 ------- null}
r -t 0.06672 -s 2 -d 3 -p tcp -e 1040 -c 0 -i 15 -a 0 -x {0.0 3.0 10 ------- null}
+ -t 0.06672 -s 3 -d 2 -p ack -e 40 -c 0 -i 31 -a 0 -x {3.0 0.0 10 ------- null}
- -t 0.06672 -s 3 -d 2 -p ack -e 40 -c 0 -i 31 -a 0 -x {3.0 0.0 10 ------- null}
h -t 0.06672 -s 3 -d 2 -p ack -e 40 -c 0 -i 31 -a 0 -x {3.0 0.0 -1 ------- null}
r -t 0.06788 -s 3 -d 2 -p ack -e 40 -c 0 -i 31 -a 0 -x {3.0 0.0 10 ------- null}
+ -t 0.06788 -s 2 -d 0 -p ack -e 40 -c 0 -i 31 -a 0 -x {3.0 0.0 10 ------- null}
- -t 0.06788 -s 2 -d 0 -p ack -e 40 -c 0 -i 31 -a 0 -x {3.0 0.0 10 ------- null}
h -t 0.06788 -s 2 -d 0 -p ack -e 40 -c 0 -i 31 -a 0 -x {3.0 0.0 -1 ------- null}
- -t 0.06888 -s 0 -d 2 -p tcp -e 1040 -c 0 -i 20 -a 0 -x {0.0 3.0 13 ------- null}
h -t 0.06888 -s 0 -d 2 -p tcp -e 1040 -c 0 -i 20 -a 0 -x {0.0 3.0 -1 ------- null}
r -t 0.06904 -s 2 -d 0 -p ack -e 40 -c 0 -i 31 -a 0 -x {3.0 0.0 10 ------- null}
+ -t 0.06904 -s 0 -d 2 -p tcp -e 1040 -c 0 -i 32 -a 0 -x {0.0 3.0 21 ------- null}
+ -t 0.06904 -s 0 -d 2 -p tcp -e 1040 -c 0 -i 33 -a 0 -x {0.0 3.0 22 ------- null}
r -t 0.06988 -s 0 -d 2 -p tcp -e 1040 -c 0 -i 18 -a 0 -x {0.0 3.0 12 ------- null}
+ -t 0.06988 -s 2 -d 3 -p tcp -e 1040 -c 0 -i 18 -a 0 -x {0.0 3.0 12 ------- null}
- -t 0.06988 -s 2 -d 3 -p tcp -e 1040 -c 0 -i 18 -a 0 -x {0.0 3.0 12 ------- null}
h -t 0.06988 -s 2 -d 3 -p tcp -e 1040 -c 0 -i 18 -a 0 -x {0.0 3.0 -1 ------- null}
r -t 0.07088 -s 2 -d 3 -p tcp -e 1040 -c 0 -i 17 -a 0 -x {0.0 3.0 11 ------- null}
+ -t 0.07088 -s 3 -d 2 -p ack -e 40 -c 0 -i 34 -a 0 -x {3.0 0.0 11 ------- null}
- -t 0.07088 -s 3 -d 2 -p ack -e 40 -c 0 -i 34 -a 0 -x {3.0 0.0 11 ------- null}
h -t 0.07088 -s 3 -d 2 -p ack -e 40 -c 0 -i 34 -a 0 -x {3.0 0.0 -1 ------- null}
r -t 0.07204 -s 3 -d 2 -p ack -e 40 -c 0 -i 34 -a 0 -x {3.0 0.0 11 ------- null}
+ -t 0.07204 -s 2 -d 0 -p ack -e 40 -c 0 -i 34 -a 0 -x {3.0 0.0 11 ------- null}
- -t 0.07204 -s 2 -d 0 -p ack -e 40 -c 0 -i 34 -a 0 -x {3.0 0.0 11 ------- null}
h -t 0.07204 -s 2 -d 0 -p ack -e 40 -c 0 -i 34 -a 0 -x {3.0 0.0 -1 ------- null}
- -t 0.07304 -s 0 -d 2 -p tcp -e 1040 -c 0 -i 21 -a 0 -x {0.0 3.0 14 ------- null}
h -t 0.07304 -s 0 -d 2 -p tcp -e 1040 -c 0 -i 21 -a 0 -x {0.0 3.0 -1 ------- null}
r -t 0.0732 -s 2 -d 0 -p ack -e 40 -c 0 -i 34 -a 0 -x {3.0 0.0 11 ------- null}
+ -t 0.0732 -s 0 -d 2 -p tcp -e 1040 -c 0 -i 35 -a 0 -x {0.0 3.0 23 ------- null}
+ -t 0.0732 -s 0 -d 2 -p tcp -e 1040 -c 0 -i 36 -a 0 -x {0.0 3.0 24 ------- null}
r -t 0.07404 -s 0 -d 2 -p tcp -e 1040 -c 0 -i 20 -a 0 -x {0.0 3.0 13 ------- null}
+ -t 0.07404 -s 2 -d 3 -p tcp -e 1040 -c 0 -i 20 -a 0 -x {0.0 3.0 13 ------- null}
- -t 0.07404 -s 2 -d 3 -p tcp -e 1040 -c 0 -i 20 -a 0 -x {0.0 3.0 13 ------- null}
h -t 0.07404 -s 2 -d 3 -p tcp -e 1040 -c 0 -i 20 -a 0 -x {0.0 3.0 -1 ------- null}
r -t 0.07504 -s 2 -d 3 -p tcp -e 1040 -c 0 -i 18 -a 0 -x {0.0 3.0 12 ------- null}
+ -t 0.07504 -s 3 -d 2 -p ack -e 40 -c 0 -i 37 -a 0 -x {3.0 0.0 12 ------- null}
- -t 0.07504 -s 3 -d 2 -p ack -e 40 -c 0 -i 37 -a 0 -x {3.0 0.0 12 ------- null}
h -t 0.07504 -s 3 -d 2 -p ack -e 40 -c 0 -i 37 -a 0 -x {3.0 0.0 -1 ------- null}
r -t 0.0762 -s 3 -d 2 -p ack -e 40 -c 0 -i 37 -a 0 -x {3.0 0.0 12 ------- null}
+ -t 0.0762 -s 2 -d 0 -p ack -e 40 -c 0 -i 37 -a 0 -x {3.0 0.0 12 ------- null}
- -t 0.0762 -s 2 -d 0 -p ack -e 40 -c 0 -i 37 -a 0 -x {3.0 0.0 12 ------- null}
h -t 0.0762 -s 2 -d 0 -p ack -e 40 -c 0 -i 37 -a 0 -x {3.0 0.0 -1 ------- null}
- -t 0.0772 -s 0 -d 2 -p tcp -e 1040 -c 0 -i 23 -a 0 -x {0.0 3.0 15 ------- null}
h -t 0.0772 -s 0 -d 2 -p tcp -e 1040 -c 0 -i 23 -a 0 -x {0.0 3.0 -1 ------- null}
r -t 0.07736 -s 2 -d 0 -p ack -e 40 -c 0 -i 37 -a 0 -x {3.0 0.0 12 ------- null}
+ -t 0.07736 -s 0 -d 2 -p tcp -e 1040 -c 0 -i 38 -a 0 -x {0.0 3.0 25 ------- null}
+ -t 0.07736 -s 0 -d 2 -p tcp -e 1040 -c 0 -i 39 -a 0 -x {0.0 3.0 26 ------- null}
r -t 0.0782 -s 0 -d 2 -p tcp -e 1040 -c 0 -i 21 -a 0 -x {0.0 3.0 14 ------- null}
+ -t 0.0782 -s 2 -d 3 -p tcp -e 1040 -c 0 -i 21 -a 0 -x {0.0 3.0 14 ------- null}
- -t 0.0782 -s 2 -d 3 -p tcp -e 1040 -c 0 -i 21 -a 0 -x {0.0 3.0 14 ------- null}
h -t 0.0782 -s 2 -d 3 -p tcp -e 1040 -c 0 -i 21 -a 0 -x {0.0 3.0 -1 ------- null}
r -t 0.0792 -s 2 -d 3 -p tcp -e 1040 -c 0 -i 20 -a 0 -x {0.0 3.0 13 ------- null}
+ -t 0.0792 -s 3 -d 2 -p ack -e 40 -c 0 -i 40 -a 0 -x {3.0 0.0 13 ------- null}
- -t 0.0792 -s 3 -d 2 -p ack -e 40 -c 0 -i 40 -a 0 -x {3.0 0.0 13 ------- null}
h -t 0.0792 -s 3 -d 2 -p ack -e 40 -c 0 -i 40 -a 0 -x {3.0 0.0 -1 ------- null}
r -t 0.08036 -s 3 -d 2 -p ack -e 40 -c 0 -i 40 -a 0 -x {3.0 0.0 13 ------- null}
+ -t 0.08036 -s 2 -d 0 -p ack -e 40 -c 0 -i 40 -a 0 -x {3.0 0.0 13 ------- null}
- -t 0.08036 -s 2 -d 0 -p ack -e 40 -c 0 -i 40 -a 0 -x {3.0 0.0 13 ------- null}
h -t 0.08036 -s 2 -d 0 -p ack -e 40 -c 0 -i 40 -a 0 -x {3.0 0.0 -1 ------- null}
- -t 0.08136 -s 0 -d 2 -p tcp -e 1040 -c 0 -i 24 -a 0 -x {0.0 3.0 16 ------- null}
h -t 0.08136 -s 0 -d 2 -p tcp -e 1040 -c 0 -i 24 -a 0 -x {0.0 3.0 -1 ------- null}
r -t 0.08152 -s 2 -d 0 -p ack -e 40 -c 0 -i 40 -a 0 -x {3.0 0.0 13 ------- null}
+ -t 0.08152 -s 0 -d 2 -p tcp -e 1040 -c 0 -i 41 -a 0 -x {0.0 3.0 27 ------- null}
+ -t 0.08152 -s 0 -d 2 -p tcp -e 1040 -c 0 -i 42 -a 0 -x {0.0 3.0 28 ------- null}
r -t 0.08236 -s 0 -d 2 -p tcp -e 1040 -c 0 -i 23 -a 0 -x {0.0 3.0 15 ------- null}
+ -t 0.08236 -s 2 -d 3 -p tcp -e 1040 -c 0 -i 23 -a 0 -x {0.0 3.0 15 ------- null}
- -t 0.08236 -s 2 -d 3 -p tcp -e 1040 -c 0 -i 23 -a 0 -x {0.0 3.0 15 ------- null}
h -t 0.08236 -s 2 -d 3 -p tcp -e 1040 -c 0 -i 23 -a 0 -x {0.0 3.0 -1 ------- null}
r -t 0.08336 -s 2 -d 3 -p tcp -e 1040 -c 0 -i 21 -a 0 -x {0.0 3.0 14 ------- null}
+ -t 0.08336 -s 3 -d 2 -p ack -e 40 -c 0 -i 43 -a 0 -x {3.0 0.0 14 ------- null}
- -t 0.08336 -s 3 -d 2 -p ack -e 40 -c 0 -i 43 -a 0 -x {3.0 0.0 14 ------- null}
h -t 0.08336 -s 3 -d 2 -p ack -e 40 -c 0 -i 43 -a 0 -x {3.0 0.0 -1 ------- null}
r -t 0.08452 -s 3 -d 2 -p ack -e 40 -c 0 -i 43 -a 0 -x {3.0 0.0 14 ------- null}
+ -t 0.08452 -s 2 -d 0 -p ack -e 40 -c 0 -i 43 -a 0 -x {3.0 0.0 14 ------- null}
- -t 0.08452 -s 2 -d 0 -p ack -e 40 -c 0 -i 43 -a 0 -x {3.0 0.0 14 ------- null}
h -t 0.08452 -s 2 -d 0 -p ack -e 40 -c 0 -i 43 -a 0 -x {3.0 0.0 -1 ------- null}
- -t 0.08552 -s 0 -d 2 -p tcp -e 1040 -c 0 -i 26 -a 0 -x {0.0 3.0 17 ------- null}
h -t 0.08552 -s 0 -d 2 -p tcp -e 1040 -c 0 -i 26 -a 0 -x {0.0 3.0 -1 ------- null}
r -t 0.08568 -s 2 -d 0 -p ack -e 40 -c 0 -i 43 -a 0 -x {3.0 0.0 14 ------- null}
+ -t 0.08568 -s 0 -d 2 -p tcp -e 1040 -c 0 -i 44 -a 0 -x {0.0 3.0 29 ------- null}
+ -t 0.08568 -s 0 -d 2 -p tcp -e 1040 -c 0 -i 45 -a 0 -x {0.0 3.0 30 ------- null}
r -t 0.08652 -s 0 -d 2 -p tcp -e 1040 -c 0 -i 24 -a 0 -x {0.0 3.0 16 ------- null}
+ -t 0.08652 -s 2 -d 3 -p tcp -e 1040 -c 0 -i 24 -a 0 -x {0.0 3.0 16 ------- null}
- -t 0.08652 -s 2 -d 3 -p tcp -e 1040 -c 0 -i 24 -a 0 -x {0.0 3.0 16 ------- null}
h -t 0.08652 -s 2 -d 3 -p tcp -e 1040 -c 0 -i 24 -a 0 -x {0.0 3.0 -1 ------- null}
r -t 0.08752 -s 2 -d 3 -p tcp -e 1040 -c 0 -i 23 -a 0 -x {0.0 3.0 15 ------- null}
+ -t 0.08752 -s 3 -d 2 -p ack -e 40 -c 0 -i 46 -a 0 -x {3.0 0.0 15 ------- null}
- -t 0.08752 -s 3 -d 2 -p ack -e 40 -c 0 -i 46 -a 0 -x {3.0 0.0 15 ------- null}
h -t 0.08752 -s 3 -d 2 -p ack -e 40 -c 0 -i 46 -a 0 -x {3.0 0.0 -1 ------- null}
r -t 0.08868 -s 3 -d 2 -p ack -e 40 -c 0 -i 46 -a 0 -x {3.0 0.0 15 ------- null}
+ -t 0.08868 -s 2 -d 0 -p ack -e 40 -c 0 -i 46 -a 0 -x {3.0 0.0 15 ------- null}
- -t 0.08868 -s 2 -d 0 -p ack -e 40 -c 0 -i 46 -a 0 -x {3.0 0.0 15 ------- null}
h -t 0.08868 -s 2 -d 0 -p ack -e 40 -c 0 -i 46 -a 0 -x {3.0 0.0 -1 ------- null}
- -t 0.08968 -s 0 -d 2 -p tcp -e 1040 -c 0 -i 27 -a 0 -x {0.0 3.0 18 ------- null}
h -t 0.08968 -s 0 -d 2 -p tcp -e 1040 -c 0 -i 27 -a 0 -x {0.0 3.0 -1 ------- null}
r -t 0.0898399999999999 -s 2 -d 0 -p ack -e 40 -c 0 -i 46 -a 0 -x {3.0 0.0 15 ------- null}
+ -t 0.0898399999999999 -s 0 -d 2 -p tcp -e 1040 -c 0 -i 47 -a 0 -x {0.0 3.0 31 ------- null}
+ -t 0.0898399999999999 -s 0 -d 2 -p tcp -e 1040 -c 0 -i 48 -a 0 -x {0.0 3.0 32 ------- null}
r -t 0.09068 -s 0 -d 2 -p tcp -e 1040 -c 0 -i 26 -a 0 -x {0.0 3.0 17 ------- null}
+ -t 0.09068 -s 2 -d 3 -p tcp -e 1040 -c 0 -i 26 -a 0 -x {0.0 3.0 17 ------- null}
- -t 0.09068 -s 2 -d 3 -p tcp -e 1040 -c 0 -i 26 -a 0 -x {0.0 3.0 17 ------- null}
h -t 0.09068 -s 2 -d 3 -p tcp -e 1040 -c 0 -i 26 -a 0 -x {0.0 3.0 -1 ------- null}
r -t 0.09168 -s 2 -d 3 -p tcp -e 1040 -c 0 -i 24 -a 0 -x {0.0 3.0 16 ------- null}
+ -t 0.09168 -s 3 -d 2 -p ack -e 40 -c 0 -i 49 -a 0 -x {3.0 0.0 16 ------- null}
- -t 0.09168 -s 3 -d 2 -p ack -e 40 -c 0 -i 49 -a 0 -x {3.0 0.0 16 ------- null}
h -t 0.09168 -s 3 -d 2 -p ack -e 40 -c 0 -i 49 -a 0 -x {3.0 0.0 -1 ------- null}
r -t 0.09284 -s 3 -d 2 -p ack -e 40 -c 0 -i 49 -a 0 -x {3.0 0.0 16 ------- null}
+ -t 0.09284 -s 2 -d 0 -p ack -e 40 -c 0 -i 49 -a 0 -x {3.0 0.0 16 ------- null}
- -t 0.09284 -s 2 -d 0 -p ack -e 40 -c 0 -i 49 -a 0 -x {3.0 0.0 16 ------- null}
h -t 0.09284 -s 2 -d 0 -p ack -e 40 -c 0 -i 49 -a 0 -x {3.0 0.0 -1 ------- null}
- -t 0.09384 -s 0 -d 2 -p tcp -e 1040 -c 0 -i 29 -a 0 -x {0.0 3.0 19 ------- null}
h -t 0.09384 -s 0 -d 2 -p tcp -e 1040 -c 0 -i 29 -a 0 -x {0.0 3.0 -1 ------- null}
r -t 0.0939999999999999 -s 2 -d 0 -p ack -e 40 -c 0 -i 49 -a 0 -x {3.0 0.0 16 ------- null}
+ -t 0.0939999999999999 -s 0 -d 2 -p tcp -e 1040 -c 0 -i 50 -a 0 -x {0.0 3.0 33 ------- null}
+ -t 0.0939999999999999 -s 0 -d 2 -p tcp -e 1040 -c 0 -i 51 -a 0 -x {0.0 3.0 34 ------- null}
r -t 0.09484 -s 0 -d 2 -p tcp -e 1040 -c 0 -i 27 -a 0 -x {0.0 3.0 18 ------- null}
+ -t 0.09484 -s 2 -d 3 -p tcp -e 1040 -c 0 -i 27 -a 0 -x {0.0 3.0 18 ------- null}
- -t 0.09484 -s 2 -d 3 -p tcp -e 1040 -c 0 -i 27 -a 0 -x {0.0 3.0 18 ------- null}
h -t 0.09484 -s 2 -d 3 -p tcp -e 1040 -c 0 -i 27 -a 0 -x {0.0 3.0 -1 ------- null}
r -t 0.09584 -s 2 -d 3 -p tcp -e 1040 -c 0 -i 26 -a 0 -x {0.0 3.0 17 ------- null}
+ -t 0.09584 -s 3 -d 2 -p ack -e 40 -c 0 -i 52 -a 0 -x {3.0 0.0 17 ------- null}
- -t 0.09584 -s 3 -d 2 -p ack -e 40 -c 0 -i 52 -a 0 -x {3.0 0.0 17 ------- null}
h -t 0.09584 -s 3 -d 2 -p ack -e 40 -c 0 -i 52 -a 0 -x {3.0 0.0 -1 ------- null}
r -t 0.0969999999999999 -s 3 -d 2 -p ack -e 40 -c 0 -i 52 -a 0 -x {3.0 0.0 17 ------- null}
+ -t 0.0969999999999999 -s 2 -d 0 -p ack -e 40 -c 0 -i 52 -a 0 -x {3.0 0.0 17 ------- null}
- -t 0.0969999999999999 -s 2 -d 0 -p ack -e 40 -c 0 -i 52 -a 0 -x {3.0 0.0 17 ------- null}
h -t 0.0969999999999999 -s 2 -d 0 -p ack -e 40 -c 0 -i 52 -a 0 -x {3.0 0.0 -1 ------- null}
- -t 0.0979999999999999 -s 0 -d 2 -p tcp -e 1040 -c 0 -i 30 -a 0 -x {0.0 3.0 20 ------- null}
h -t 0.0979999999999999 -s 0 -d 2 -p tcp -e 1040 -c 0 -i 30 -a 0 -x {0.0 3.0 -1 ------- null}
r -t 0.0981599999999999 -s 2 -d 0 -p ack -e 40 -c 0 -i 52 -a 0 -x {3.0 0.0 17 ------- null}
+ -t 0.0981599999999999 -s 0 -d 2 -p tcp -e 1040 -c 0 -i 53 -a 0 -x {0.0 3.0 35 ------- null}
+ -t 0.0981599999999999 -s 0 -d 2 -p tcp -e 1040 -c 0 -i 54 -a 0 -x {0.0 3.0 36 ------- null}
r -t 0.0989999999999999 -s 0 -d 2 -p tcp -e 1040 -c 0 -i 29 -a 0 -x {0.0 3.0 19 ------- null}
+ -t 0.0989999999999999 -s 2 -d 3 -p tcp -e 1040 -c 0 -i 29 -a 0 -x {0.0 3.0 19 ------- null}
- -t 0.0989999999999999 -s 2 -d 3 -p tcp -e 1040 -c 0 -i 29 -a 0 -x {0.0 3.0 19 ------- null}
h -t 0.0989999999999999 -s 2 -d 3 -p tcp -e 1040 -c 0 -i 29 -a 0 -x {0.0 3.0 -1 ------- null}
r -t 0.1 -s 2 -d 3 -p tcp -e 1040 -c 0 -i 27 -a 0 -x {0.0 3.0 18 ------- null}
+ -t 0.1 -s 3 -d 2 -p ack -e 40 -c 0 -i 55 -a 0 -x {3.0 0.0 18 ------- null}
- -t 0.1 -s 3 -d 2 -p ack -e 40 -c 0 -i 55 -a 0 -x {3.0 0.0 18 ------- null}
h -t 0.1 -s 3 -d 2 -p ack -e 40 -c 0 -i 55 -a 0 -x {3.0 0.0 -1 ------- null}
r -t 0.10116 -s 3 -d 2 -p ack -e 40 -c 0 -i 55 -a 0 -x {3.0 0.0 18 ------- null}
+ -t 0.10116 -s 2 -d 0 -p ack -e 40 -c 0 -i 55 -a 0 -x {3.0 0.0 18 ------- null}
- -t 0.10116 -s 2 -d 0 -p ack -e 40 -c 0 -i 55 -a 0 -x {3.0 0.0 18 ------- null}
h -t 0.10116 -s 2 -d 0 -p ack -e 40 -c 0 -i 55 -a 0 -x {3.0 0.0 -1 ------- null}
- -t 0.10216 -s 0 -d 2 -p tcp -e 1040 -c 0 -i 32 -a 0 -x {0.0 3.0 21 ------- null}
h -t 0.10216 -s 0 -d 2 -p tcp -e 1040 -c 0 -i 32 -a 0 -x {0.0 3.0 -1 ------- null}
r -t 0.10232 -s 2 -d 0 -p ack -e 40 -c 0 -i 55 -a 0 -x {3.0 0.0 18 ------- null}
+ -t 0.10232 -s 0 -d 2 -p tcp -e 1040 -c 0 -i 56 -a 0 -x {0.0 3.0 37 ------- null}
+ -t 0.10232 -s 0 -d 2 -p tcp -e 1040 -c 0 -i 57 -a 0 -x {0.0 3.0 38 ------- null}
r -t 0.10316 -s 0 -d 2 -p tcp -e 1040 -c 0 -i 30 -a 0 -x {0.0 3.0 20 ------- null}
+ -t 0.10316 -s 2 -d 3 -p tcp -e 1040 -c 0 -i 30 -a 0 -x {0.0 3.0 20 ------- null}
- -t 0.10316 -s 2 -d 3 -p tcp -e 1040 -c 0 -i 30 -a 0 -x {0.0 3.0 20 ------- null}
h -t 0.10316 -s 2 -d 3 -p tcp -e 1040 -c 0 -i 30 -a 0 -x {0.0 3.0 -1 ------- null}
r -t 0.10416 -s 2 -d 3 -p tcp -e 1040 -c 0 -i 29 -a 0 -x {0.0 3.0 19 ------- null}
+ -t 0.10416 -s 3 -d 2 -p ack -e 40 -c 0 -i 58 -a 0 -x {3.0 0.0 19 ------- null}
- -t 0.10416 -s 3 -d 2 -p ack -e 40 -c 0 -i 58 -a 0 -x {3.0 0.0 19 ------- null}
h -t 0.10416 -s 3 -d 2 -p ack -e 40 -c 0 -i 58 -a 0 -x {3.0 0.0 -1 ------- null}
r -t 0.10532 -s 3 -d 2 -p ack -e 40 -c 0 -i 58 -a 0 -x {3.0 0.0 19 ------- null}
+ -t 0.10532 -s 2 -d 0 -p ack -e 40 -c 0 -i 58 -a 0 -x {3.0 0.0 19 ------- null}
- -t 0.10532 -s 2 -d 0 -p ack -e 40 -c 0 -i 58 -a 0 -x {3.0 0.0 19 ------- null}
h -t 0.10532 -s 2 -d 0 -p ack -e 40 -c 0 -i 58 -a 0 -x {3.0 0.0 -1 ------- null}
- -t 0.10632 -s 0 -d 2 -p tcp -e 1040 -c 0 -i 33 -a 0 -x {0.0 3.0 22 ------- null}
h -t 0.10632 -s 0 -d 2 -p tcp -e 1040 -c 0 -i 33 -a 0 -x {0.0 3.0 -1 ------- null}
r -t 0.10648 -s 2 -d 0 -p ack -e 40 -c 0 -i 58 -a 0 -x {3.0 0.0 19 ------- null}
+ -t 0.10648 -s 0 -d 2 -p tcp -e 1040 -c 0 -i 59 -a 0 -x {0.0 3.0 39 ------- null}
r -t 0.10732 -s 0 -d 2 -p tcp -e 1040 -c 0 -i 32 -a 0 -x {0.0 3.0 21 ------- null}
+ -t 0.10732 -s 2 -d 3 -p tcp -e 1040 -c 0 -i 32 -a 0 -x {0.0 3.0 21 ------- null}
- -t 0.10732 -s 2 -d 3 -p tcp -e 1040 -c 0 -i 32 -a 0 -x {0.0 3.0 21 ------- null}
h -t 0.10732 -s 2 -d 3 -p tcp -e 1040 -c 0 -i 32 -a 0 -x {0.0 3.0 -1 ------- null}
r -t 0.10832 -s 2 -d 3 -p tcp -e 1040 -c 0 -i 30 -a 0 -x {0.0 3.0 20 ------- null}
+ -t 0.10832 -s 3 -d 2 -p ack -e 40 -c 0 -i 60 -a 0 -x {3.0 0.0 20 ------- null}
- -t 0.10832 -s 3 -d 2 -p ack -e 40 -c 0 -i 60 -a 0 -x {3.0 0.0 20 ------- null}
h -t 0.10832 -s 3 -d 2 -p ack -e 40 -c 0 -i 60 -a 0 -x {3.0 0.0 -1 ------- null}
r -t 0.10948 -s 3 -d 2 -p ack -e 40 -c 0 -i 60 -a 0 -x {3.0 0.0 20 ------- null}
+ -t 0.10948 -s 2 -d 0 -p ack -e 40 -c 0 -i 60 -a 0 -x {3.0 0.0 20 ------- null}