+ 0.01 0 2 tcp 40 ------- 0 0.0 3.0 0 0
- 0.01 0 2 tcp 40 ------- 0 0.0 3.0 0 0
r 0.01116 0 2 tcp 40 ------- 0 0.0 3.0 0 0
+ 0.01116 2 3 tcp 40 ------- 0 0.0 3.0 0 0
- 0.01116 2 3 tcp 40 ------- 0 0.0 3.0 0 0
r 0.01232 2 3 tcp 40 ------- 0 0.0 3.0 0 0
+ 0.01232 3 2 ack 40 ------- 0 3.0 0.0 0 1
- 0.01232 3 2 ack 40 ------- 0 3.0 0.0 0 1
r 0.01348 3 2 ack 40 ------- 0 3.0 0.0 0 1
+ 0.01348 2 0 ack 40 ------- 0 3.0 0.0 0 1
- 0.01348 2 0 ack 40 ------- 0 3.0 0.0 0 1
r 0.01464 2 0 ack 40 ------- 0 3.0 0.0 0 1
+ 0.01464 0 2 tcp 1040 ------- 0 0.0 3.0 1 2
- 0.01464 0 2 tcp 1040 ------- 0 0.0 3.0 1 2
+ 0.01464 0 2 tcp 1040 ------- 0 0.0 3.0 2 3
- 0.0188 0 2 tcp 1040 ------- 0 0.0 3.0 2 3
r 0.0198 0 2 tcp 1040 ------- 0 0.0 3.0 1 2
+ 0.0198 2 3 tcp 1040 ------- 0 0.0 3.0 1 2
- 0.0198 2 3 tcp 1040 ------- 0 0.0 3.0 1 2
r 0.02396 0 2 tcp 1040 ------- 0 0.0 3.0 2 3
+ 0.02396 2 3 tcp 1040 ------- 0 0.0 3.0 2 3
- 0.02396 2 3 tcp 1040 ------- 0 0.0 3.0 2 3
r 0.02496 2 3 tcp 1040 ------- 0 0.0 3.0 1 2
+ 0.02496 3 2 ack 40 ------- 0 3.0 0.0 1 4
- 0.02496 3 2 ack 40 ------- 0 3.0 0.0 1 4
r 0.02612 3 2 ack 40 ------- 0 3.0 0.0 1 4
+ 0.02612 2 0 ack 40 ------- 0 3.0 0.0 1 4
- 0.02612 2 0 ack 40 ------- 0 3.0 0.0 1 4
r 0.02728 2 0 ack 40 ------- 0 3.0 0.0 1 4
+ 0.02728 0 2 tcp 1040 ------- 0 0.0 3.0 3 5
- 0.02728 0 2 tcp 1040 ------- 0 0.0 3.0 3 5
+ 0.02728 0 2 tcp 1040 ------- 0 0.0 3.0 4 6
r 0.02912 2 3 tcp 1040 ------- 0 0.0 3.0 2 3
+ 0.02912 3 2 ack 40 ------- 0 3.0 0.0 2 7
- 0.02912 3 2 ack 40 ------- 0 3.0 0.0 2 7
r 0.03028 3 2 ack 40 ------- 0 3.0 0.0 2 7
+ 0.03028 2 0 ack 40 ------- 0 3.0 0.0 2 7
- 0.03028 2 0 ack 40 ------- 0 3.0 0.0 2 7
- 0.03144 0 2 tcp 1040 ------- 0 0.0 3.0 4 6
r 0.03144 2 0 ack 40 ------- 0 3.0 0.0 2 7
+ 0.03144 0 2 tcp 1040 ------- 0 0.0 3.0 5 8
+ 0.03144 0 2 tcp 1040 ------- 0 0.0 3.0 6 9
r 0.03244 0 2 tcp 1040 ------- 0 0.0 3.0 3 5
+ 0.03244 2 3 tcp 1040 ------- 0 0.0 3.0 3 5
- 0.03244 2 3 tcp 1040 ------- 0 0.0 3.0 3 5
- 0.0356 0 2 tcp 1040 ------- 0 0.0 3.0 5 8
r 0.0366 0 2 tcp 1040 ------- 0 0.0 3.0 4 6
+ 0.0366 2 3 tcp 1040 ------- 0 0.0 3.0 4 6
- 0.0366 2 3 tcp 1040 ------- 0 0.0 3.0 4 6
r 0.0376 2 3 tcp 1040 ------- 0 0.0 3.0 3 5
+ 0.0376 3 2 ack 40 ------- 0 3.0 0.0 3 10
- 0.0376 3 2 ack 40 ------- 0 3.0 0.0 3 10
r 0.03876 3 2 ack 40 ------- 0 3.0 0.0 3 10
+ 0.03876 2 0 ack 40 ------- 0 3.0 0.0 3 10
- 0.03876 2 0 ack 40 ------- 0 3.0 0.0 3 10
- 0.03976 0 2 tcp 1040 ------- 0 0.0 3.0 6 9
r 0.03992 2 0 ack 40 ------- 0 3.0 0.0 3 10
+ 0.03992 0 2 tcp 1040 ------- 0 0.0 3.0 7 11
+ 0.03992 0 2 tcp 1040 ------- 0 0.0 3.0 8 12
r 0.04076 0 2 tcp 1040 ------- 0 0.0 3.0 5 8
+ 0.04076 2 3 tcp 1040 ------- 0 0.0 3.0 5 8
- 0.04076 2 3 tcp 1040 ------- 0 0.0 3.0 5 8
r 0.04176 2 3 tcp 1040 ------- 0 0.0 3.0 4 6
+ 0.04176 3 2 ack 40 ------- 0 3.0 0.0 4 13
- 0.04176 3 2 ack 40 ------- 0 3.0 0.0 4 13
r 0.04292 3 2 ack 40 ------- 0 3.0 0.0 4 13
+ 0.04292 2 0 ack 40 ------- 0 3.0 0.0 4 13
- 0.04292 2 0 ack 40 ------- 0 3.0 0.0 4 13
- 0.04392 0 2 tcp 1040 ------- 0 0.0 3.0 7 11
r 0.04408 2 0 ack 40 ------- 0 3.0 0.0 4 13
+ 0.04408 0 2 tcp 1040 ------- 0 0.0 3.0 9 14
+ 0.04408 0 2 tcp 1040 ------- 0 0.0 3.0 10 15
r 0.04492 0 2 tcp 1040 ------- 0 0.0 3.0 6 9
+ 0.04492 2 3 tcp 1040 ------- 0 0.0 3.0 6 9
- 0.04492 2 3 tcp 1040 ------- 0 0.0 3.0 6 9
r 0.04592 2 3 tcp 1040 ------- 0 0.0 3.0 5 8
+ 0.04592 3 2 ack 40 ------- 0 3.0 0.0 5 16
- 0.04592 3 2 ack 40 ------- 0 3.0 0.0 5 16
r 0.04708 3 2 ack 40 ------- 0 3.0 0.0 5 16
+ 0.04708 2 0 ack 40 ------- 0 3.0 0.0 5 16
- 0.04708 2 0 ack 40 ------- 0 3.0 0.0 5 16
- 0.04808 0 2 tcp 1040 ------- 0 0.0 3.0 8 12
r 0.04824 2 0 ack 40 ------- 0 3.0 0.0 5 16
+ 0.04824 0 2 tcp 1040 ------- 0 0.0 3.0 11 17
+ 0.04824 0 2 tcp 1040 ------- 0 0.0 3.0 12 18
r 0.04908 0 2 tcp 1040 ------- 0 0.0 3.0 7 11
+ 0.04908 2 3 tcp 1040 ------- 0 0.0 3.0 7 11
- 0.04908 2 3 tcp 1040 ------- 0 0.0 3.0 7 11
r 0.05008 2 3 tcp 1040 ------- 0 0.0 3.0 6 9
+ 0.05008 3 2 ack 40 ------- 0 3.0 0.0 6 19
- 0.05008 3 2 ack 40 ------- 0 3.0 0.0 6 19
r 0.05124 3 2 ack 40 ------- 0 3.0 0.0 6 19
+ 0.05124 2 0 ack 40 ------- 0 3.0 0.0 6 19
- 0.05124 2 0 ack 40 ------- 0 3.0 0.0 6 19
- 0.05224 0 2 tcp 1040 ------- 0 0.0 3.0 9 14
r 0.0524 2 0 ack 40 ------- 0 3.0 0.0 6 19
+ 0.0524 0 2 tcp 1040 ------- 0 0.0 3.0 13 20
+ 0.0524 0 2 tcp 1040 ------- 0 0.0 3.0 14 21
r 0.05324 0 2 tcp 1040 ------- 0 0.0 3.0 8 12
+ 0.05324 2 3 tcp 1040 ------- 0 0.0 3.0 8 12
- 0.05324 2 3 tcp 1040 ------- 0 0.0 3.0 8 12
r 0.05424 2 3 tcp 1040 ------- 0 0.0 3.0 7 11
+ 0.05424 3 2 ack 40 ------- 0 3.0 0.0 7 22
- 0.05424 3 2 ack 40 ------- 0 3.0 0.0 7 22
r 0.0554 3 2 ack 40 ------- 0 3.0 0.0 7 22
+ 0.0554 2 0 ack 40 ------- 0 3.0 0.0 7 22
- 0.0554 2 0 ack 40 ------- 0 3.0 0.0 7 22
- 0.0564 0 2 tcp 1040 ------- 0 0.0 3.0 10 15
r 0.05656 2 0 ack 40 ------- 0 3.0 0.0 7 22
+ 0.05656 0 2 tcp 1040 ------- 0 0.0 3.0 15 23
+ 0.05656 0 2 tcp 1040 ------- 0 0.0 3.0 16 24
r 0.0574 0 2 tcp 1040 ------- 0 0.0 3.0 9 14
+ 0.0574 2 3 tcp 1040 ------- 0 0.0 3.0 9 14
- 0.0574 2 3 tcp 1040 ------- 0 0.0 3.0 9 14
r 0.0584 2 3 tcp 1040 ------- 0 0.0 3.0 8 12
+ 0.0584 3 2 ack 40 ------- 0 3.0 0.0 8 25
- 0.0584 3 2 ack 40 ------- 0 3.0 0.0 8 25
r 0.05956 3 2 ack 40 ------- 0 3.0 0.0 8 25
+ 0.05956 2 0 ack 40 ------- 0 3.0 0.0 8 25
- 0.05956 2 0 ack 40 ------- 0 3.0 0.0 8 25
- 0.06056 0 2 tcp 1040 ------- 0 0.0 3.0 11 17
r 0.06072 2 0 ack 40 ------- 0 3.0 0.0 8 25
+ 0.06072 0 2 tcp 1040 ------- 0 0.0 3.0 17 26
+ 0.06072 0 2 tcp 1040 ------- 0 0.0 3.0 18 27
r 0.06156 0 2 tcp 1040 ------- 0 0.0 3.0 10 15
+ 0.06156 2 3 tcp 1040 ------- 0 0.0 3.0 10 15
- 0.06156 2 3 tcp 1040 ------- 0 0.0 3.0 10 15
r 0.06256 2 3 tcp 1040 ------- 0 0.0 3.0 9 14
+ 0.06256 3 2 ack 40 ------- 0 3.0 0.0 9 28
- 0.06256 3 2 ack 40 ------- 0 3.0 0.0 9 28
r 0.06372 3 2 ack 40 ------- 0 3.0 0.0 9 28
+ 0.06372 2 0 ack 40 ------- 0 3.0 0.0 9 28
- 0.06372 2 0 ack 40 ------- 0 3.0 0.0 9 28
- 0.06472 0 2 tcp 1040 ------- 0 0.0 3.0 12 18
r 0.06488 2 0 ack 40 ------- 0 3.0 0.0 9 28
+ 0.06488 0 2 tcp 1040 ------- 0 0.0 3.0 19 29
+ 0.06488 0 2 tcp 1040 ------- 0 0.0 3.0 20 30
r 0.06572 0 2 tcp 1040 ------- 0 0.0 3.0 11 17
+ 0.06572 2 3 tcp 1040 ------- 0 0.0 3.0 11 17
- 0.06572 2 3 tcp 1040 ------- 0 0.0 3.0 11 17
r 0.06672 2 3 tcp 1040 ------- 0 0.0 3.0 10 15
+ 0.06672 3 2 ack 40 ------- 0 3.0 0.0 10 31
- 0.06672 3 2 ack 40 ------- 0 3.0 0.0 10 31
r 0.06788 3 2 ack 40 ------- 0 3.0 0.0 10 31
+ 0.06788 2 0 ack 40 ------- 0 3.0 0.0 10 31
- 0.06788 2 0 ack 40 ------- 0 3.0 0.0 10 31
- 0.06888 0 2 tcp 1040 ------- 0 0.0 3.0 13 20
r 0.06904 2 0 ack 40 ------- 0 3.0 0.0 10 31
+ 0.06904 0 2 tcp 1040 ------- 0 0.0 3.0 21 32
+ 0.06904 0 2 tcp 1040 ------- 0 0.0 3.0 22 33
r 0.06988 0 2 tcp 1040 ------- 0 0.0 3.0 12 18
+ 0.06988 2 3 tcp 1040 ------- 0 0.0 3.0 12 18
- 0.06988 2 3 tcp 1040 ------- 0 0.0 3.0 12 18
r 0.07088 2 3 tcp 1040 ------- 0 0.0 3.0 11 17
+ 0.07088 3 2 ack 40 ------- 0 3.0 0.0 11 34
- 0.07088 3 2 ack 40 ------- 0 3.0 0.0 11 34
r 0.07204 3 2 ack 40 ------- 0 3.0 0.0 11 34
+ 0.07204 2 0 ack 40 ------- 0 3.0 0.0 11 34
- 0.07204 2 0 ack 40 ------- 0 3.0 0.0 11 34
- 0.07304 0 2 tcp 1040 ------- 0 0.0 3.0 14 21
r 0.0732 2 0 ack 40 ------- 0 3.0 0.0 11 34
+ 0.0732 0 2 tcp 1040 ------- 0 0.0 3.0 23 35
+ 0.0732 0 2 tcp 1040 ------- 0 0.0 3.0 24 36
r 0.07404 0 2 tcp 1040 ------- 0 0.0 3.0 13 20
+ 0.07404 2 3 tcp 1040 ------- 0 0.0 3.0 13 20
- 0.07404 2 3 tcp 1040 ------- 0 0.0 3.0 13 20
r 0.07504 2 3 tcp 1040 ------- 0 0.0 3.0 12 18
+ 0.07504 3 2 ack 40 ------- 0 3.0 0.0 12 37
- 0.07504 3 2 ack 40 ------- 0 3.0 0.0 12 37
r 0.0762 3 2 ack 40 ------- 0 3.0 0.0 12 37
+ 0.0762 2 0 ack 40 ------- 0 3.0 0.0 12 37
- 0.0762 2 0 ack 40 ------- 0 3.0 0.0 12 37
- 0.0772 0 2 tcp 1040 ------- 0 0.0 3.0 15 23
r 0.07736 2 0 ack 40 ------- 0 3.0 0.0 12 37
+ 0.07736 0 2 tcp 1040 ------- 0 0.0 3.0 25 38
+ 0.07736 0 2 tcp 1040 ------- 0 0.0 3.0 26 39
r 0.0782 0 2 tcp 1040 ------- 0 0.0 3.0 14 21
+ 0.0782 2 3 tcp 1040 ------- 0 0.0 3.0 14 21
- 0.0782 2 3 tcp 1040 ------- 0 0.0 3.0 14 21
r 0.0792 2 3 tcp 1040 ------- 0 0.0 3.0 13 20
+ 0.0792 3 2 ack 40 ------- 0 3.0 0.0 13 40
- 0.0792 3 2 ack 40 ------- 0 3.0 0.0 13 40
r 0.08036 3 2 ack 40 ------- 0 3.0 0.0 13 40
+ 0.08036 2 0 ack 40 ------- 0 3.0 0.0 13 40
- 0.08036 2 0 ack 40 ------- 0 3.0 0.0 13 40
- 0.08136 0 2 tcp 1040 ------- 0 0.0 3.0 16 24
r 0.08152 2 0 ack 40 ------- 0 3.0 0.0 13 40
+ 0.08152 0 2 tcp 1040 ------- 0 0.0 3.0 27 41
+ 0.08152 0 2 tcp 1040 ------- 0 0.0 3.0 28 42
r 0.08236 0 2 tcp 1040 ------- 0 0.0 3.0 15 23
+ 0.08236 2 3 tcp 1040 ------- 0 0.0 3.0 15 23
- 0.08236 2 3 tcp 1040 ------- 0 0.0 3.0 15 23
r 0.08336 2 3 tcp 1040 ------- 0 0.0 3.0 14 21
+ 0.08336 3 2 ack 40 ------- 0 3.0 0.0 14 43
- 0.08336 3 2 ack 40 ------- 0 3.0 0.0 14 43
r 0.08452 3 2 ack 40 ------- 0 3.0 0.0 14 43
+ 0.08452 2 0 ack 40 ------- 0 3.0 0.0 14 43
- 0.08452 2 0 ack 40 ------- 0 3.0 0.0 14 43
- 0.08552 0 2 tcp 1040 ------- 0 0.0 3.0 17 26
r 0.08568 2 0 ack 40 ------- 0 3.0 0.0 14 43
+ 0.08568 0 2 tcp 1040 ------- 0 0.0 3.0 29 44
+ 0.08568 0 2 tcp 1040 ------- 0 0.0 3.0 30 45
r 0.08652 0 2 tcp 1040 ------- 0 0.0 3.0 16 24
+ 0.08652 2 3 tcp 1040 ------- 0 0.0 3.0 16 24
- 0.08652 2 3 tcp 1040 ------- 0 0.0 3.0 16 24
r 0.08752 2 3 tcp 1040 ------- 0 0.0 3.0 15 23
+ 0.08752 3 2 ack 40 ------- 0 3.0 0.0 15 46
- 0.08752 3 2 ack 40 ------- 0 3.0 0.0 15 46
r 0.08868 3 2 ack 40 ------- 0 3.0 0.0 15 46
+ 0.08868 2 0 ack 40 ------- 0 3.0 0.0 15 46
- 0.08868 2 0 ack 40 ------- 0 3.0 0.0 15 46
- 0.08968 0 2 tcp 1040 ------- 0 0.0 3.0 18 27
r 0.08984 2 0 ack 40 ------- 0 3.0 0.0 15 46
+ 0.08984 0 2 tcp 1040 ------- 0 0.0 3.0 31 47
+ 0.08984 0 2 tcp 1040 ------- 0 0.0 3.0 32 48
r 0.09068 0 2 tcp 1040 ------- 0 0.0 3.0 17 26
+ 0.09068 2 3 tcp 1040 ------- 0 0.0 3.0 17 26
- 0.09068 2 3 tcp 1040 ------- 0 0.0 3.0 17 26
r 0.09168 2 3 tcp 1040 ------- 0 0.0 3.0 16 24
+ 0.09168 3 2 ack 40 ------- 0 3.0 0.0 16 49
- 0.09168 3 2 ack 40 ------- 0 3.0 0.0 16 49
r 0.09284 3 2 ack 40 ------- 0 3.0 0.0 16 49
+ 0.09284 2 0 ack 40 ------- 0 3.0 0.0 16 49
- 0.09284 2 0 ack 40 ------- 0 3.0 0.0 16 49
- 0.09384 0 2 tcp 1040 ------- 0 0.0 3.0 19 29
r 0.094 2 0 ack 40 ------- 0 3.0 0.0 16 49
+ 0.094 0 2 tcp 1040 ------- 0 0.0 3.0 33 50
+ 0.094 0 2 tcp 1040 ------- 0 0.0 3.0 34 51
r 0.09484 0 2 tcp 1040 ------- 0 0.0 3.0 18 27
+ 0.09484 2 3 tcp 1040 ------- 0 0.0 3.0 18 27
- 0.09484 2 3 tcp 1040 ------- 0 0.0 3.0 18 27
r 0.09584 2 3 tcp 1040 ------- 0 0.0 3.0 17 26
+ 0.09584 3 2 ack 40 ------- 0 3.0 0.0 17 52
- 0.09584 3 2 ack 40 ------- 0 3.0 0.0 17 52
r 0.097 3 2 ack 40 ------- 0 3.0 0.0 17 52
+ 0.097 2 0 ack 40 ------- 0 3.0 0.0 17 52
- 0.097 2 0 ack 40 ------- 0 3.0 0.0 17 52
- 0.098 0 2 tcp 1040 ------- 0 0.0 3.0 20 30
r 0.09816 2 0 ack 40 ------- 0 3.0 0.0 17 52
+ 0.09816 0 2 tcp 1040 ------- 0 0.0 3.0 35 53
+ 0.09816 0 2 tcp 1040 ------- 0 0.0 3.0 36 54
r 0.099 0 2 tcp 1040 ------- 0 0.0 3.0 19 29
+ 0.099 2 3 tcp 1040 ------- 0 0.0 3.0 19 29
- 0.099 2 3 tcp 1040 ------- 0 0.0 3.0 19 29
r 0.1 2 3 tcp 1040 ------- 0 0.0 3.0 18 27
+ 0.1 3 2 ack 40 ------- 0 3.0 0.0 18 55
- 0.1 3 2 ack 40 ------- 0 3.0 0.0 18 55
r 0.10116 3 2 ack 40 ------- 0 3.0 0.0 18 55
+ 0.10116 2 0 ack 40 ------- 0 3.0 0.0 18 55
- 0.10116 2 0 ack 40 ------- 0 3.0 0.0 18 55
- 0.10216 0 2 tcp 1040 ------- 0 0.0 3.0 21 32
r 0.10232 2 0 ack 40 ------- 0 3.0 0.0 18 55
+ 0.10232 0 2 tcp 1040 ------- 0 0.0 3.0 37 56
+ 0.10232 0 2 tcp 1040 ------- 0 0.0 3.0 38 57
r 0.10316 0 2 tcp 1040 ------- 0 0.0 3.0 20 30
+ 0.10316 2 3 tcp 1040 ------- 0 0.0 3.0 20 30
- 0.10316 2 3 tcp 1040 ------- 0 0.0 3.0 20 30
r 0.10416 2 3 tcp 1040 ------- 0 0.0 3.0 19 29
+ 0.10416 3 2 ack 40 ------- 0 3.0 0.0 19 58
- 0.10416 3 2 ack 40 ------- 0 3.0 0.0 19 58
r 0.10532 3 2 ack 40 ------- 0 3.0 0.0 19 58
+ 0.10532 2 0 ack 40 ------- 0 3.0 0.0 19 58
- 0.10532 2 0 ack 40 ------- 0 3.0 0.0 19 58
- 0.10632 0 2 tcp 1040 ------- 0 0.0 3.0 22 33
r 0.10648 2 0 ack 40 ------- 0 3.0 0.0 19 58
+ 0.10648 0 2 tcp 1040 ------- 0 0.0 3.0 39 59
r 0.10732 0 2 tcp 1040 ------- 0 0.0 3.0 21 32
+ 0.10732 2 3 tcp 1040 ------- 0 0.0 3.0 21 32
- 0.10732 2 3 tcp 1040 ------- 0 0.0 3.0 21 32
r 0.10832 2 3 tcp 1040 ------- 0 0.0 3.0 20 30
+ 0.10832 3 2 ack 40 ------- 0 3.0 0.0 20 60
- 0.10832 3 2 ack 40 ------- 0 3.0 0.0 20 60
r 0.10948 3 2 ack 40 ------- 0 3.0 0.0 20 60
+ 0.10948 2 0 ack 40 ------- 0 3.0 0.0 20 60
- 0.10948 2 0 ack 40 ------- 0 3.0 0.0 20 60
- 0.11048 0 2 tcp 1040 ------- 0 0.0 3.0 23 35
r 0.11064 2 0 ack 40 ------- 0 3.0 0.0 20 60
+ 0.11064 0 2 tcp 1040 ------- 0 0.0 3.0 40 61
r 0.11148 0 2 tcp 1040 ------- 0 0.0 3.0 22 33
+ 0.11148 2 3 tcp 1040 ------- 0 0.0 3.0 22 33
- 0.11148 2 3 tcp 1040 ------- 0 0.0 3.0 22 33
r 0.11248 2 3 tcp 1040 ------- 0 0.0 3.0 21 32
+ 0.11248 3 2 ack 40 ------- 0 3.0 0.0 21 62
- 0.11248 3 2 ack 40 ------- 0 3.0 0.0 21 62
r 0.11364 3 2 ack 40 ------- 0 3.0 0.0 21 62
+ 0.11364 2 0 ack 40 ------- 0 3.0 0.0 21 62
- 0.11364 2 0 ack 40 ------- 0 3.0 0.0 21 62
- 0.11464 0 2 tcp 1040 ------- 0 0.0 3.0 24 36
r 0.1148 2 0 ack 40 ------- 0 3.0 0.0 21 62
+ 0.1148 0 2 tcp 1040 ------- 0 0.0 3.0 41 63
r 0.11564 0 2 tcp 1040 ------- 0 0.0 3.0 23 35
+ 0.11564 2 3 tcp 1040 ------- 0 0.0 3.0 23 35
- 0.11564 2 3 tcp 1040 ------- 0 0.0 3.0 23 35
r 0.11664 2 3 tcp 1040 ------- 0 0.0 3.0 22 33
+ 0.11664 3 2 ack 40 ------- 0 3.0 0.0 22 64
- 0.11664 3 2 ack 40 ------- 0 3.0 0.0 22 64
r 0.1178 3 2 ack 40 ------- 0 3.0 0.0 22 64
+ 0.1178 2 0 ack 40 ------- 0 3.0 0.0 22 64
- 0.1178 2 0 ack 40 ------- 0 3.0 0.0 22 64
- 0.1188 0 2 tcp 1040 ------- 0 0.0 3.0 25 38
r 0.11896 2 0 ack 40 ------- 0 3.0 0.0 22 64
+ 0.11896 0 2 tcp 1040 ------- 0 0.0 3.0 42 65
r 0.1198 0 2 tcp 1040 ------- 0 0.0 3.0 24 36
+ 0.1198 2 3 tcp 1040 ------- 0 0.0 3.0 24 36
- 0.1198 2 3 tcp 1040 ------- 0 0.0 3.0 24 36
r 0.1208 2 3 tcp 1040 ------- 0 0.0 3.0 23 35
+ 0.1208 3 2 ack 40 ------- 0 3.0 0.0 23 66
- 0.1208 3 2 ack 40 ------- 0 3.0 0.0 23 66
r 0.12196 3 2 ack 40 ------- 0 3.0 0.0 23 66
+ 0.12196 2 0 ack 40 ------- 0 3.0 0.0 23 66
- 0.12196 2 0 ack 40 ------- 0 3.0 0.0 23 66
- 0.12296 0 2 tcp 1040 ------- 0 0.0 3.0 26 39
r 0.12312 2 0 ack 40 ------- 0 3.0 0.0 23 66
+ 0.12312 0 2 tcp 1040 ------- 0 0.0 3.0 43 67
r 0.12396 0 2 tcp 1040 ------- 0 0.0 3.0 25 38
+ 0.12396 2 3 tcp 1040 ------- 0 0.0 3.0 25 38
- 0.12396 2 3 tcp 1040 ------- 0 0.0 3.0 25 38
r 0.12496 2 3 tcp 1040 ------- 0 0.0 3.0 24 36
+ 0.12496 3 2 ack 40 ------- 0 3.0 0.0 24 68
- 0.12496 3 2 ack 40 ------- 0 3.0 0.0 24 68
r 0.12612 3 2 ack 40 ------- 0 3.0 0.0 24 68
+ 0.12612 2 0 ack 40 ------- 0 3.0 0.0 24 68
- 0.12612 2 0 ack 40 ------- 0 3.0 0.0 24 68
- 0.12712 0 2 tcp 1040 ------- 0 0.0 3.0 27 41
r 0.12728 2 0 ack 40 ------- 0 3.0 0.0 24 68
+ 0.12728 0 2 tcp 1040 ------- 0 0.0 3.0 44 69
r 0.12812 0 2 tcp 1040 ------- 0 0.0 3.0 26 39
+ 0.12812 2 3 tcp 1040 ------- 0 0.0 3.0 26 39
- 0.12812 2 3 tcp 1040 ------- 0 0.0 3.0 26 39
r 0.12912 2 3 tcp 1040 ------- 0 0.0 3.0 25 38
+ 0.12912 3 2 ack 40 ------- 0 3.0 0.0 25 70
- 0.12912 3 2 ack 40 ------- 0 3.0 0.0 25 70
r 0.13028 3 2 ack 40 ------- 0 3.0 0.0 25 70
+ 0.13028 2 0 ack 40 ------- 0 3.0 0.0 25 70
- 0.13028 2 0 ack 40 ------- 0 3.0 0.0 25 70
- 0.13128 0 2 tcp 1040 ------- 0 0.0 3.0 28 42
r 0.13144 2 0 ack 40 ------- 0 3.0 0.0 25 70
+ 0.13144 0 2 tcp 1040 ------- 0 0.0 3.0 45 71
r 0.13228 0 2 tcp 1040 ------- 0 0.0 3.0 27 41
+ 0.13228 2 3 tcp 1040 ------- 0 0.0 3.0 27 41
- 0.13228 2 3 tcp 1040 ------- 0 0.0 3.0 27 41
r 0.13328 2 3 tcp 1040 ------- 0 0.0 3.0 26 39
+ 0.13328 3 2 ack 40 ------- 0 3.0 0.0 26 72
- 0.13328 3 2 ack 40 ------- 0 3.0 0.0 26 72
r 0.13444 3 2 ack 40 ------- 0 3.0 0.0 26 72
+ 0.13444 2 0 ack 40 ------- 0 3.0 0.0 26 72
- 0.13444 2 0 ack 40 ------- 0 3.0 0.0 26 72
- 0.13544 0 2 tcp 1040 ------- 0 0.0 3.0 29 44
r 0.1356 2 0 ack 40 ------- 0 3.0 0.0 26 72
+ 0.1356 0 2 tcp 1040 ------- 0 0.0 3.0 46 73
r 0.13644 0 2 tcp 1040 ------- 0 0.0 3.0 28 42
+ 0.13644 2 3 tcp 1040 ------- 0 0.0 3.0 28 42
- 0.13644 2 3 tcp 1040 ------- 0 0.0 3.0 28 42
r 0.13744 2 3 tcp 1040 ------- 0 0.0 3.0 27 41
+ 0.13744 3 2 ack 40 ------- 0 3.0 0.0 27 74
- 0.13744 3 2 ack 40 ------- 0 3.0 0.0 27 74
r 0.1386 3 2 ack 40 ------- 0 3.0 0.0 27 74
+ 0.1386 2 0 ack 40 ------- 0 3.0 0.0 27 74
- 0.1386 2 0 ack 40 ------- 0 3.0 0.0 27 74
- 0.1396 0 2 tcp 1040 ------- 0 0.0 3.0 30 45
r 0.13976 2 0 ack 40 ------- 0 3.0 0.0 27 74
+ 0.13976 0 2 tcp 1040 ------- 0 0.0 3.0 47 75
r 0.1406 0 2 tcp 1040 ------- 0 0.0 3.0 29 44
+ 0.1406 2 3 tcp 1040 ------- 0 0.0 3.0 29 44
- 0.1406 2 3 tcp 1040 ------- 0 0.0 3.0 29 44
r 0.1416 2 3 tcp 1040 ------- 0 0.0 3.0 28 42
+ 0.1416 3 2 ack 40 ------- 0 3.0 0.0 28 76
- 0.1416 3 2 ack 40 ------- 0 3.0 0.0 28 76
r 0.14276 3 2 ack 40 ------- 0 3.0 0.0 28 76
+ 0.14276 2 0 ack 40 ------- 0 3.0 0.0 28 76
- 0.14276 2 0 ack 40 ------- 0 3.0 0.0 28 76
- 0.14376 0 2 tcp 1040 ------- 0 0.0 3.0 31 47
r 0.14392 2 0 ack 40 ------- 0 3.0 0.0 28 76
+ 0.14392 0 2 tcp 1040 ------- 0 0.0 3.0 48 77
r 0.14476 0 2 tcp 1040 ------- 0 0.0 3.0 30 45
+ 0.14476 2 3 tcp 1040 ------- 0 0.0 3.0 30 45
- 0.14476 2 3 tcp 1040 ------- 0 0.0 3.0 30 45
r 0.14576 2 3 tcp 1040 ------- 0 0.0 3.0 29 44
+ 0.14576 3 2 ack 40 ------- 0 3.0 0.0 29 78
- 0.14576 3 2 ack 40 ------- 0 3.0 0.0 29 78
r 0.14692 3 2 ack 40 ------- 0 3.0 0.0 29 78
+ 0.14692 2 0 ack 40 ------- 0 3.0 0.0 29 78
- 0.14692 2 0 ack 40 ------- 0 3.0 0.0 29 78
- 0.14792 0 2 tcp 1040 ------- 0 0.0 3.0 32 48
r 0.14808 2 0 ack 40 ------- 0 3.0 0.0 29 78
+ 0.14808 0 2 tcp 1040 ------- 0 0.0 3.0 49 79
r 0.14892 0 2 tcp 1040 ------- 0 0.0 3.0 31 47
+ 0.14892 2 3 tcp 1040 ------- 0 0.0 3.0 31 47
- 0.14892 2 3 tcp 1040 ------- 0 0.0 3.0 31 47
r 0.14992 2 3 tcp 1040 ------- 0 0.0 3.0 30 45
+ 0.14992 3 2 ack 40 ------- 0 3.0 0.0 30 80
- 0.14992 3 2 ack 40 ------- 0 3.0 0.0 30 80
r 0.15108 3 2 ack 40 ------- 0 3.0 0.0 30 80
+ 0.15108 2 0 ack 40 ------- 0 3.0 0.0 30 80
- 0.15108 2 0 ack 40 ------- 0 3.0 0.0 30 80
- 0.15208 0 2 tcp 1040 ------- 0 0.0 3.0 33 50
r 0.15224 2 0 ack 40 ------- 0 3.0 0.0 30 80
+ 0.15224 0 2 tcp 1040 ------- 0 0.0 3.0 50 81
r 0.15308 0 2 tcp 1040 ------- 0 0.0 3.0 32 48
+ 0.15308 2 3 tcp 1040 ------- 0 0.0 3.0 32 48
- 0.15308 2 3 tcp 1040 ------- 0 0.0 3.0 32 48
r 0.15408 2 3 tcp 1040 ------- 0 0.0 3.0 31 47
+ 0.15408 3 2 ack 40 ------- 0 3.0 0.0 31 82
- 0.15408 3 2 ack 40 ------- 0 3.0 0.0 31 82
r 0.15524 3 2 ack 40 ------- 0 3.0 0.0 31 82
+ 0.15524 2 0 ack 40 ------- 0 3.0 0.0 31 82
- 0.15524 2 0 ack 40 ------- 0 3.0 0.0 31 82
- 0.15624 0 2 tcp 1040 ------- 0 0.0 3.0 34 51
r 0.1564 2 0 ack 40 ------- 0 3.0 0.0 31 82
+ 0.1564 0 2 tcp 1040 ------- 0 0.0 3.0 51 83
r 0.15724 0 2 tcp 1040 ------- 0 0.0 3.0 33 50
+ 0.15724 2 3 tcp 1040 ------- 0 0.0 3.0 33 50
- 0.15724 2 3 tcp 1040 ------- 0 0.0 3.0 33 50
r 0.15824 2 3 tcp 1040 ------- 0 0.0 3.0 32 48
+ 0.15824 3 2 ack 40 ------- 0 3.0 0.0 32 84
- 0.15824 3 2 ack 40 ------- 0 3.0 0.0 32 84
r 0.1594 3 2 ack 40 ------- 0 3.0 0.0 32 84
+ 0.1594 2 0 ack 40 ------- 0 3.0 0.0 32 84
- 0.1594 2 0 ack 40 ------- 0 3.0 0.0 32 84
- 0.1604 0 2 tcp 1040 ------- 0 0.0 3.0 35 53
r 0.16056 2 0 ack 40 ------- 0 3.0 0.0 32 84
+ 0.16056 0 2 tcp 1040 ------- 0 0.0 3.0 52 85
r 0.1614 0 2 tcp 1040 ------- 0 0.0 3.0 34 51
+ 0.1614 2 3 tcp 1040 ------- 0 0.0 3.0 34 51
- 0.1614 2 3 tcp 1040 ------- 0 0.0 3.0 34 51
r 0.1624 2 3 tcp 1040 ------- 0 0.0 3.0 33 50
+ 0.1624 3 2 ack 40 ------- 0 3.0 0.0 33 86
- 0.1624 3 2 ack 40 ------- 0 3.0 0.0 33 86
r 0.16356 3 2 ack 40 ------- 0 3.0 0.0 33 86
+ 0.16356 2 0 ack 40 ------- 0 3.0 0.0 33 86
- 0.16356 2 0 ack 40 ------- 0 3.0 0.0 33 86
- 0.16456 0 2 tcp 1040 ------- 0 0.0 3.0 36 54
r 0.16472 2 0 ack 40 ------- 0 3.0 0.0 33 86
+ 0.16472 0 2 tcp 1040 ------- 0 0.0 3.0 53 87
r 0.16556 0 2 tcp 1040 ------- 0 0.0 3.0 35 53
+ 0.16556 2 3 tcp 1040 ------- 0 0.0 3.0 35 53
- 0.16556 2 3 tcp 1040 ------- 0 0.0 3.0 35 53
r 0.16656 2 3 tcp 1040 ------- 0 0.0 3.0 34 51
+ 0.16656 3 2 ack 40 ------- 0 3.0 0.0 34 88
- 0.16656 3 2 ack 40 ------- 0 3.0 0.0 34 88
r 0.16772 3 2 ack 40 ------- 0 3.0 0.0 34 88
+ 0.16772 2 0 ack 40 ------- 0 3.0 0.0 34 88
- 0.16772 2 0 ack 40 ------- 0 3.0 0.0 34 88
- 0.16872 0 2 tcp 1040 ------- 0 0.0 3.0 37 56
r 0.16888 2 0 ack 40 ------- 0 3.0 0.0 34 88
+ 0.16888 0 2 tcp 1040 ------- 0 0.0 3.0 54 89
r 0.16972 0 2 tcp 1040 ------- 0 0.0 3.0 36 54
+ 0.16972 2 3 tcp 1040 ------- 0 0.0 3.0 36 54
- 0.16972 2 3 tcp 1040 ------- 0 0.0 3.0 36 54
r 0.17072 2 3 tcp 1040 ------- 0 0.0 3.0 35 53
+ 0.17072 3 2 ack 40 ------- 0 3.0 0.0 35 90
- 0.17072 3 2 ack 40 ------- 0 3.0 0.0 35 90
r 0.17188 3 2 ack 40 ------- 0 3.0 0.0 35 90
+ 0.17188 2 0 ack 40 ------- 0 3.0 0.0 35 90
- 0.17188 2 0 ack 40 ------- 0 3.0 0.0 35 90
- 0.17288 0 2 tcp 1040 ------- 0 0.0 3.0 38 57
r 0.17304 2 0 ack 40 ------- 0 3.0 0.0 35 90
+ 0.17304 0 2 tcp 1040 ------- 0 0.0 3.0 55 91
r 0.17388 0 2 tcp 1040 ------- 0 0.0 3.0 37 56
+ 0.17388 2 3 tcp 1040 ------- 0 0.0 3.0 37 56
- 0.17388 2 3 tcp 1040 ------- 0 0.0 3.0 37 56
r 0.17488 2 3 tcp 1040 ------- 0 0.0 3.0 36 54
+ 0.17488 3 2 ack 40 ------- 0 3.0 0.0 36 92
- 0.17488 3 2 ack 40 ------- 0 3.0 0.0 36 92
r 0.17604 3 2 ack 40 ------- 0 3.0 0.0 36 92
+ 0.17604 2 0 ack 40 ------- 0 3.0 0.0 36 92
- 0.17604 2 0 ack 40 ------- 0 3.0 0.0 36 92
- 0.17704 0 2 tcp 1040 ------- 0 0.0 3.0 39 59
r 0.1772 2 0 ack 40 ------- 0 3.0 0.0 36 92
+ 0.1772 0 2 tcp 1040 ------- 0 0.0 3.0 56 93
r 0.17804 0 2 tcp 1040 ------- 0 0.0 3.0 38 57
+ 0.17804 2 3 tcp 1040 ------- 0 0.0 3.0 38 57
- 0.17804 2 3 tcp 1040 ------- 0 0.0 3.0 38 57
r 0.17904 2 3 tcp 1040 ------- 0 0.0 3.0 37 56
+ 0.17904 3 2 ack 40 ------- 0 3.0 0.0 37 94
- 0.17904 3 2 ack 40 ------- 0 3.0 0.0 37 94
r 0.1802 3 2 ack 40 ------- 0 3.0 0.0 37 94
+ 0.1802 2 0 ack 40 ------- 0 3.0 0.0 37 94
- 0.1802 2 0 ack 40 ------- 0 3.0 0.0 37 94
- 0.1812 0 2 tcp 1040 ------- 0 0.0 3.0 40 61
r 0.18136 2 0 ack 40 ------- 0 3.0 0.0 37 94
+ 0.18136 0 2 tcp 1040 ------- 0 0.0 3.0 57 95
r 0.1822 0 2 tcp 1040 ------- 0 0.0 3.0 39 59
+ 0.1822 2 3 tcp 1040 ------- 0 0.0 3.0 39 59
- 0.1822 2 3 tcp 1040 ------- 0 0.0 3.0 39 59
r 0.1832 2 3 tcp 1040 ------- 0 0.0 3.0 38 57
+ 0.1832 3 2 ack 40 ------- 0 3.0 0.0 38 96
- 0.1832 3 2 ack 40 ------- 0 3.0 0.0 38 96
r 0.18436 3 2 ack 40 ------- 0 3.0 0.0 38 96
+ 0.18436 2 0 ack 40 ------- 0 3.0 0.0 38 96
- 0.18436 2 0 ack 40 ------- 0 3.0 0.0 38 96
- 0.18536 0 2 tcp 1040 ------- 0 0.0 3.0 41 63
r 0.18552 2 0 ack 40 ------- 0 3.0 0.0 38 96
+ 0.18552 0 2 tcp 1040 ------- 0 0.0 3.0 58 97
r 0.18636 0 2 tcp 1040 ------- 0 0.0 3.0 40 61
+ 0.18636 2 3 tcp 1040 ------- 0 0.0 3.0 40 61
- 0.18636 2 3 tcp 1040 ------- 0 0.0 3.0 40 61
r 0.18736 2 3 tcp 1040 ------- 0 0.0 3.0 39 59
+ 0.18736 3 2 ack 40 ------- 0 3.0 0.0 39 98
- 0.18736 3 2 ack 40 ------- 0 3.0 0.0 39 98
r 0.18852 3 2 ack 40 ------- 0 3.0 0.0 39 98
+ 0.18852 2 0 ack 40 ------- 0 3.0 0.0 39 98
- 0.18852 2 0 ack 40 ------- 0 3.0 0.0 39 98
- 0.18952 0 2 tcp 1040 ------- 0 0.0 3.0 42 65
r 0.18968 2 0 ack 40 ------- 0 3.0 0.0 39 98
+ 0.18968 0 2 tcp 1040 ------- 0 0.0 3.0 59 99
r 0.19052 0 2 tcp 1040 ------- 0 0.0 3.0 41 63
+ 0.19052 2 3 tcp 1040 ------- 0 0.0 3.0 41 63
- 0.19052 2 3 tcp 1040 ------- 0 0.0 3.0 41 63
r 0.19152 2 3 tcp 1040 ------- 0 0.0 3.0 40 61
+ 0.19152 3 2 ack 40 ------- 0 3.0 0.0 40 100
- 0.19152 3 2 ack 40 ------- 0 3.0 0.0 40 100
r 0.19268 3 2 ack 40 ------- 0 3.0 0.0 40 100
+ 0.19268 2 0 ack 40 ------- 0 3.0 0.0 40 100
- 0.19268 2 0 ack 40 ------- 0 3.0 0.0 40 100
- 0.19368 0 2 tcp 1040 ------- 0 0.0 3.0 43 67
r 0.19384 2 0 ack 40 ------- 0 3.0 0.0 40 100
+ 0.19384 0 2 tcp 1040 ------- 0 0.0 3.0 60 101
r 0.19468 0 2 tcp 1040 ------- 0 0.0 3.0 42 65
+ 0.19468 2 3 tcp 1040 ------- 0 0.0 3.0 42 65
- 0.19468 2 3 tcp 1040 ------- 0 0.0 3.0 42 65
r 0.19568 2 3 tcp 1040 ------- 0 0.0 3.0 41 63
+ 0.19568 3 2 ack 40 ------- 0 3.0 0.0 41 102
- 0.19568 3 2 ack 40 ------- 0 3.0 0.0 41 102
r 0.19684 3 2 ack 40 ------- 0 3.0 0.0 41 102
+ 0.19684 2 0 ack 40 ------- 0 3.0 0.0 41 102
- 0.19684 2 0 ack 40 ------- 0 3.0 0.0 41 102
- 0.19784 0 2 tcp 1040 ------- 0 0.0 3.0 44 69
r 0.198 2 0 ack 40 ------- 0 3.0 0.0 41 102
+ 0.198 0 2 tcp 1040 ------- 0 0.0 3.0 61 103
r 0.19884 0 2 tcp 1040 ------- 0 0.0 3.0 43 67
+ 0.19884 2 3 tcp 1040 ------- 0 0.0 3.0 43 67
- 0.19884 2 3 tcp 1040 ------- 0 0.0 3.0 43 67
r 0.19984 2 3 tcp 1040 ------- 0 0.0 3.0 42 65
+ 0.19984 3 2 ack 40 ------- 0 3.0 0.0 42 104
- 0.19984 3 2 ack 40 ------- 0 3.0 0.0 42 104
r 0.201 3 2 ack 40 ------- 0 3.0 0.0 42 104
+ 0.201 2 0 ack 40 ------- 0 3.0 0.0 42 104
- 0.201 2 0 ack 40 ------- 0 3.0 0.0 42 104
- 0.202 0 2 tcp 1040 ------- 0 0.0 3.0 45 71
r 0.20216 2 0 ack 40 ------- 0 3.0 0.0 42 104
+ 0.20216 0 2 tcp 1040 ------- 0 0.0 3.0 62 105
r 0.203 0 2 tcp 1040 ------- 0 0.0 3.0 44 69
+ 0.203 2 3 tcp 1040 ------- 0 0.0 3.0 44 69
- 0.203 2 3 tcp 1040 ------- 0 0.0 3.0 44 69
r 0.204 2 3 tcp 1040 ------- 0 0.0 3.0 43 67
+ 0.204 3 2 ack 40 ------- 0 3.0 0.0 43 106
- 0.204 3 2 ack 40 ------- 0 3.0 0.0 43 106
r 0.20516 3 2 ack 40 ------- 0 3.0 0.0 43 106
+ 0.20516 2 0 ack 40 ------- 0 3.0 0.0 43 106
- 0.20516 2 0 ack 40 ------- 0 3.0 0.0 43 106
- 0.20616 0 2 tcp 1040 ------- 0 0.0 3.0 46 73
r 0.20632 2 0 ack 40 ------- 0 3.0 0.0 43 106
+ 0.20632 0 2 tcp 1040 ------- 0 0.0 3.0 63 107
r 0.20716 0 2 tcp 1040 ------- 0 0.0 3.0 45 71
+ 0.20716 2 3 tcp 1040 ------- 0 0.0 3.0 45 71
- 0.20716 2 3 tcp 1040 ------- 0 0.0 3.0 45 71
r 0.20816 2 3 tcp 1040 ------- 0 0.0 3.0 44 69
+ 0.20816 3 2 ack 40 ------- 0 3.0 0.0 44 108
- 0.20816 3 2 ack 40 ------- 0 3.0 0.0 44 108
r 0.20932 3 2 ack 40 ------- 0 3.0 0.0 44 108
+ 0.20932 2 0 ack 40 ------- 0 3.0 0.0 44 108
- 0.20932 2 0 ack 40 ------- 0 3.0 0.0 44 108
- 0.21032 0 2 tcp 1040 ------- 0 0.0 3.0 47 75
r 0.21048 2 0 ack 40 ------- 0 3.0 0.0 44 108
+ 0.21048 0 2 tcp 1040 ------- 0 0.0 3.0 64 109
r 0.21132 0 2 tcp 1040 ------- 0 0.0 3.0 46 73
+ 0.21132 2 3 tcp 1040 ------- 0 0.0 3.0 46 73
- 0.21132 2 3 tcp 1040 ------- 0 0.0 3.0 46 73
r 0.21232 2 3 tcp 1040 ------- 0 0.0 3.0 45 71
+ 0.21232 3 2 ack 40 ------- 0 3.0 0.0 45 110
- 0.21232 3 2 ack 40 ------- 0 3.0 0.0 45 110
r 0.21348 3 2 ack 40 ------- 0 3.0 0.0 45 110
+ 0.21348 2 0 ack 40 ------- 0 3.0 0.0 45 110
- 0.21348 2 0 ack 40 ------- 0 3.0 0.0 45 110
- 0.21448 0 2 tcp 1040 ------- 0 0.0 3.0 48 77
r 0.21464 2 0 ack 40 ------- 0 3.0 0.0 45 110
+ 0.21464 0 2 tcp 1040 ------- 0 0.0 3.0 65 111
r 0.21548 0 2 tcp 1040 ------- 0 0.0 3.0 47 75
+ 0.21548 2 3 tcp 1040 ------- 0 0.0 3.0 47 75
- 0.21548 2 3 tcp 1040 ------- 0 0.0 3.0 47 75
r 0.21648 2 3 tcp 1040 ------- 0 0.0 3.0 46 73
+ 0.21648 3 2 ack 40 ------- 0 3.0 0.0 46 112
- 0.21648 3 2 ack 40 ------- 0 3.0 0.0 46 112
r 0.21764 3 2 ack 40 ------- 0 3.0 0.0 46 112
+ 0.21764 2 0 ack 40 ------- 0 3.0 0.0 46 112
- 0.21764 2 0 ack 40 ------- 0 3.0 0.0 46 112
- 0.21864 0 2 tcp 1040 ------- 0 0.0 3.0 49 79
r 0.2188 2 0 ack 40 ------- 0 3.0 0.0 46 112
+ 0.2188 0 2 tcp 1040 ------- 0 0.0 3.0 66 113
r 0.21964 0 2 tcp 1040 ------- 0 0.0 3.0 48 77
+ 0.21964 2 3 tcp 1040 ------- 0 0.0 3.0 48 77
- 0.21964 2 3 tcp 1040 ------- 0 0.0 3.0 48 77
r 0.22064 2 3 tcp 1040 ------- 0 0.0 3.0 47 75
+ 0.22064 3 2 ack 40 ------- 0 3.0 0.0 47 114
- 0.22064 3 2 ack 40 ------- 0 3.0 0.0 47 114
r 0.2218 3 2 ack 40 ------- 0 3.0 0.0 47 114
+ 0.2218 2 0 ack 40 ------- 0 3.0 0.0 47 114
- 0.2218 2 0 ack 40 ------- 0 3.0 0.0 47 114
- 0.2228 0 2 tcp 1040 ------- 0 0.0 3.0 50 81
r 0.22296 2 0 ack 40 ------- 0 3.0 0.0 47 114
+ 0.22296 0 2 tcp 1040 ------- 0 0.0 3.0 67 115
r 0.2238 0 2 tcp 1040 ------- 0 0.0 3.0 49 79
+ 0.2238 2 3 tcp 1040 ------- 0 0.0 3.0 49 79
- 0.2238 2 3 tcp 1040 ------- 0 0.0 3.0 49 79
r 0.2248 2 3 tcp 1040 ------- 0 0.0 3.0 48 77
+ 0.2248 3 2 ack 40 ------- 0 3.0 0.0 48 116
- 0.2248 3 2 ack 40 ------- 0 3.0 0.0 48 116
r 0.22596 3 2 ack 40 ------- 0 3.0 0.0 48 116
+ 0.22596 2 0 ack 40 ------- 0 3.0 0.0 48 116
- 0.22596 2 0 ack 40 ------- 0 3.0 0.0 48 116
- 0.22696 0 2 tcp 1040 ------- 0 0.0 3.0 51 83
r 0.22712 2 0 ack 40 ------- 0 3.0 0.0 48 116
+ 0.22712 0 2 tcp 1040 ------- 0 0.0 3.0 68 117
r 0.22796 0 2 tcp 1040 ------- 0 0.0 3.0 50 81
+ 0.22796 2 3 tcp 1040 ------- 0 0.0 3.0 50 81
- 0.22796 2 3 tcp 1040 ------- 0 0.0 3.0 50 81
r 0.22896 2 3 tcp 1040 ------- 0 0.0 3.0 49 79
+ 0.22896 3 2 ack 40 ------- 0 3.0 0.0 49 118
- 0.22896 3 2 ack 40 ------- 0 3.0 0.0 49 118
r 0.23012 3 2 ack 40 ------- 0 3.0 0.0 49 118
+ 0.23012 2 0 ack 40 ------- 0 3.0 0.0 49 118
- 0.23012 2 0 ack 40 ------- 0 3.0 0.0 49 118
- 0.23112 0 2 tcp 1040 ------- 0 0.0 3.0 52 85
r 0.23128 2 0 ack 40 ------- 0 3.0 0.0 49 118
+ 0.23128 0 2 tcp 1040 ------- 0 0.0 3.0 69 119
r 0.23212 0 2 tcp 1040 ------- 0 0.0 3.0 51 83
+ 0.23212 2 3 tcp 1040 ------- 0 0.0 3.0 51 83
- 0.23212 2 3 tcp 1040 ------- 0 0.0 3.0 51 83
r 0.23312 2 3 tcp 1040 ------- 0 0.0 3.0 50 81
+ 0.23312 3 2 ack 40 ------- 0 3.0 0.0 50 120
- 0.23312 3 2 ack 40 ------- 0 3.0 0.0 50 120
r 0.23428 3 2 ack 40 ------- 0 3.0 0.0 50 120
+ 0.23428 2 0 ack 40 ------- 0 3.0 0.0 50 120
- 0.23428 2 0 ack 40 ------- 0 3.0 0.0 50 120
- 0.23528 0 2 tcp 1040 ------- 0 0.0 3.0 53 87
r 0.23544 2 0 ack 40 ------- 0 3.0 0.0 50 120
+ 0.23544 0 2 tcp 1040 ------- 0 0.0 3.0 70 121
r 0.23628 0 2 tcp 1040 ------- 0 0.0 3.0 52 85
+ 0.23628 2 3 tcp 1040 ------- 0 0.0 3.0 52 85
- 0.23628 2 3 tcp 1040 ------- 0 0.0 3.0 52 85
r 0.23728 2 3 tcp 1040 ------- 0 0.0 3.0 51 83
+ 0.23728 3 2 ack 40 ------- 0 3.0 0.0 51 122
- 0.23728 3 2 ack 40 ------- 0 3.0 0.0 51 122
r 0.23844 3 2 ack 40 ------- 0 3.0 0.0 51 122
+ 0.23844 2 0 ack 40 ------- 0 3.0 0.0 51 122
- 0.23844 2 0 ack 40 ------- 0 3.0 0.0 51 122
- 0.23944 0 2 tcp 1040 ------- 0 0.0 3.0 54 89
r 0.2396 2 0 ack 40 ------- 0 3.0 0.0 51 122
+ 0.2396 0 2 tcp 1040 ------- 0 0.0 3.0 71 123
r 0.24044 0 2 tcp 1040 ------- 0 0.0 3.0 53 87
+ 0.24044 2 3 tcp 1040 ------- 0 0.0 3.0 53 87
- 0.24044 2 3 tcp 1040 ------- 0 0.0 3.0 53 87
r 0.24144 2 3 tcp 1040 ------- 0 0.0 3.0 52 85
+ 0.24144 3 2 ack 40 ------- 0 3.0 0.0 52 124
- 0.24144 3 2 ack 40 ------- 0 3.0 0.0 52 124
r 0.2426 3 2 ack 40 ------- 0 3.0 0.0 52 124